<?xml version="1.0"?>
<VTKFile type="UnstructuredGrid"  version="0.1"  >
<UnstructuredGrid>
<Piece  NumberOfPoints="525" NumberOfCells="1920">
<Points>
<DataArray  type="Float64"  NumberOfComponents="3"  format="ascii">0 0 0  0.05 0 0  0.1 0 0  0.15 0 0  0.2 0 0  0.25 0 0  0.3 0 0  0.35 0 0  0.4 0 0  0.45 0 0  0.5 0 0  0.55 0 0  0.6 0 0  0.65 0 0  0.7 0 0  0.75 0 0  0.8 0 0  0.85 0 0  0.9 0 0  0.95 0 0  1 0 0  0 0.005 0  0.05 0.005 0  0.1 0.005 0  0.15 0.005 0  0.2 0.005 0  0.25 0.005 0  0.3 0.005 0  0.35 0.005 0  0.4 0.005 0  0.45 0.005 0  0.5 0.005 0  0.55 0.005 0  0.6 0.005 0  0.65 0.005 0  0.7 0.005 0  0.75 0.005 0  0.8 0.005 0  0.85 0.005 0  0.9 0.005 0  0.95 0.005 0  1 0.005 0  0 0.01 0  0.05 0.01 0  0.1 0.01 0  0.15 0.01 0  0.2 0.01 0  0.25 0.01 0  0.3 0.01 0  0.35 0.01 0  0.4 0.01 0  0.45 0.01 0  0.5 0.01 0  0.55 0.01 0  0.6 0.01 0  0.65 0.01 0  0.7 0.01 0  0.75 0.01 0  0.8 0.01 0  0.85 0.01 0  0.9 0.01 0  0.95 0.01 0  1 0.01 0  0 0.015 0  0.05 0.015 0  0.1 0.015 0  0.15 0.015 0  0.2 0.015 0  0.25 0.015 0  0.3 0.015 0  0.35 0.015 0  0.4 0.015 0  0.45 0.015 0  0.5 0.015 0  0.55 0.015 0  0.6 0.015 0  0.65 0.015 0  0.7 0.015 0  0.75 0.015 0  0.8 0.015 0  0.85 0.015 0  0.9 0.015 0  0.95 0.015 0  1 0.015 0  0 0.02 0  0.05 0.02 0  0.1 0.02 0  0.15 0.02 0  0.2 0.02 0  0.25 0.02 0  0.3 0.02 0  0.35 0.02 0  0.4 0.02 0  0.45 0.02 0  0.5 0.02 0  0.55 0.02 0  0.6 0.02 0  0.65 0.02 0  0.7 0.02 0  0.75 0.02 0  0.8 0.02 0  0.85 0.02 0  0.9 0.02 0  0.95 0.02 0  1 0.02 0  0 0 0.005  0.05 0 0.005  0.1 0 0.005  0.15 0 0.005  0.2 0 0.005  0.25 0 0.005  0.3 0 0.005  0.35 0 0.005  0.4 0 0.005  0.45 0 0.005  0.5 0 0.005  0.55 0 0.005  0.6 0 0.005  0.65 0 0.005  0.7 0 0.005  0.75 0 0.005  0.8 0 0.005  0.85 0 0.005  0.9 0 0.005  0.95 0 0.005  1 0 0.005  0 0.005 0.005  0.05 0.005 0.005  0.1 0.005 0.005  0.15 0.005 0.005  0.2 0.005 0.005  0.25 0.005 0.005  0.3 0.005 0.005  0.35 0.005 0.005  0.4 0.005 0.005  0.45 0.005 0.005  0.5 0.005 0.005  0.55 0.005 0.005  0.6 0.005 0.005  0.65 0.005 0.005  0.7 0.005 0.005  0.75 0.005 0.005  0.8 0.005 0.005  0.85 0.005 0.005  0.9 0.005 0.005  0.95 0.005 0.005  1 0.005 0.005  0 0.01 0.005  0.05 0.01 0.005  0.1 0.01 0.005  0.15 0.01 0.005  0.2 0.01 0.005  0.25 0.01 0.005  0.3 0.01 0.005  0.35 0.01 0.005  0.4 0.01 0.005  0.45 0.01 0.005  0.5 0.01 0.005  0.55 0.01 0.005  0.6 0.01 0.005  0.65 0.01 0.005  0.7 0.01 0.005  0.75 0.01 0.005  0.8 0.01 0.005  0.85 0.01 0.005  0.9 0.01 0.005  0.95 0.01 0.005  1 0.01 0.005  0 0.015 0.005  0.05 0.015 0.005  0.1 0.015 0.005  0.15 0.015 0.005  0.2 0.015 0.005  0.25 0.015 0.005  0.3 0.015 0.005  0.35 0.015 0.005  0.4 0.015 0.005  0.45 0.015 0.005  0.5 0.015 0.005  0.55 0.015 0.005  0.6 0.015 0.005  0.65 0.015 0.005  0.7 0.015 0.005  0.75 0.015 0.005  0.8 0.015 0.005  0.85 0.015 0.005  0.9 0.015 0.005  0.95 0.015 0.005  1 0.015 0.005  0 0.02 0.005  0.05 0.02 0.005  0.1 0.02 0.005  0.15 0.02 0.005  0.2 0.02 0.005  0.25 0.02 0.005  0.3 0.02 0.005  0.35 0.02 0.005  0.4 0.02 0.005  0.45 0.02 0.005  0.5 0.02 0.005  0.55 0.02 0.005  0.6 0.02 0.005  0.65 0.02 0.005  0.7 0.02 0.005  0.75 0.02 0.005  0.8 0.02 0.005  0.85 0.02 0.005  0.9 0.02 0.005  0.95 0.02 0.005  1 0.02 0.005  0 0 0.01  0.05 0 0.01  0.1 0 0.01  0.15 0 0.01  0.2 0 0.01  0.25 0 0.01  0.3 0 0.01  0.35 0 0.01  0.4 0 0.01  0.45 0 0.01  0.5 0 0.01  0.55 0 0.01  0.6 0 0.01  0.65 0 0.01  0.7 0 0.01  0.75 0 0.01  0.8 0 0.01  0.85 0 0.01  0.9 0 0.01  0.95 0 0.01  1 0 0.01  0 0.005 0.01  0.05 0.005 0.01  0.1 0.005 0.01  0.15 0.005 0.01  0.2 0.005 0.01  0.25 0.005 0.01  0.3 0.005 0.01  0.35 0.005 0.01  0.4 0.005 0.01  0.45 0.005 0.01  0.5 0.005 0.01  0.55 0.005 0.01  0.6 0.005 0.01  0.65 0.005 0.01  0.7 0.005 0.01  0.75 0.005 0.01  0.8 0.005 0.01  0.85 0.005 0.01  0.9 0.005 0.01  0.95 0.005 0.01  1 0.005 0.01  0 0.01 0.01  0.05 0.01 0.01  0.1 0.01 0.01  0.15 0.01 0.01  0.2 0.01 0.01  0.25 0.01 0.01  0.3 0.01 0.01  0.35 0.01 0.01  0.4 0.01 0.01  0.45 0.01 0.01  0.5 0.01 0.01  0.55 0.01 0.01  0.6 0.01 0.01  0.65 0.01 0.01  0.7 0.01 0.01  0.75 0.01 0.01  0.8 0.01 0.01  0.85 0.01 0.01  0.9 0.01 0.01  0.95 0.01 0.01  1 0.01 0.01  0 0.015 0.01  0.05 0.015 0.01  0.1 0.015 0.01  0.15 0.015 0.01  0.2 0.015 0.01  0.25 0.015 0.01  0.3 0.015 0.01  0.35 0.015 0.01  0.4 0.015 0.01  0.45 0.015 0.01  0.5 0.015 0.01  0.55 0.015 0.01  0.6 0.015 0.01  0.65 0.015 0.01  0.7 0.015 0.01  0.75 0.015 0.01  0.8 0.015 0.01  0.85 0.015 0.01  0.9 0.015 0.01  0.95 0.015 0.01  1 0.015 0.01  0 0.02 0.01  0.05 0.02 0.01  0.1 0.02 0.01  0.15 0.02 0.01  0.2 0.02 0.01  0.25 0.02 0.01  0.3 0.02 0.01  0.35 0.02 0.01  0.4 0.02 0.01  0.45 0.02 0.01  0.5 0.02 0.01  0.55 0.02 0.01  0.6 0.02 0.01  0.65 0.02 0.01  0.7 0.02 0.01  0.75 0.02 0.01  0.8 0.02 0.01  0.85 0.02 0.01  0.9 0.02 0.01  0.95 0.02 0.01  1 0.02 0.01  0 0 0.015  0.05 0 0.015  0.1 0 0.015  0.15 0 0.015  0.2 0 0.015  0.25 0 0.015  0.3 0 0.015  0.35 0 0.015  0.4 0 0.015  0.45 0 0.015  0.5 0 0.015  0.55 0 0.015  0.6 0 0.015  0.65 0 0.015  0.7 0 0.015  0.75 0 0.015  0.8 0 0.015  0.85 0 0.015  0.9 0 0.015  0.95 0 0.015  1 0 0.015  0 0.005 0.015  0.05 0.005 0.015  0.1 0.005 0.015  0.15 0.005 0.015  0.2 0.005 0.015  0.25 0.005 0.015  0.3 0.005 0.015  0.35 0.005 0.015  0.4 0.005 0.015  0.45 0.005 0.015  0.5 0.005 0.015  0.55 0.005 0.015  0.6 0.005 0.015  0.65 0.005 0.015  0.7 0.005 0.015  0.75 0.005 0.015  0.8 0.005 0.015  0.85 0.005 0.015  0.9 0.005 0.015  0.95 0.005 0.015  1 0.005 0.015  0 0.01 0.015  0.05 0.01 0.015  0.1 0.01 0.015  0.15 0.01 0.015  0.2 0.01 0.015  0.25 0.01 0.015  0.3 0.01 0.015  0.35 0.01 0.015  0.4 0.01 0.015  0.45 0.01 0.015  0.5 0.01 0.015  0.55 0.01 0.015  0.6 0.01 0.015  0.65 0.01 0.015  0.7 0.01 0.015  0.75 0.01 0.015  0.8 0.01 0.015  0.85 0.01 0.015  0.9 0.01 0.015  0.95 0.01 0.015  1 0.01 0.015  0 0.015 0.015  0.05 0.015 0.015  0.1 0.015 0.015  0.15 0.015 0.015  0.2 0.015 0.015  0.25 0.015 0.015  0.3 0.015 0.015  0.35 0.015 0.015  0.4 0.015 0.015  0.45 0.015 0.015  0.5 0.015 0.015  0.55 0.015 0.015  0.6 0.015 0.015  0.65 0.015 0.015  0.7 0.015 0.015  0.75 0.015 0.015  0.8 0.015 0.015  0.85 0.015 0.015  0.9 0.015 0.015  0.95 0.015 0.015  1 0.015 0.015  0 0.02 0.015  0.05 0.02 0.015  0.1 0.02 0.015  0.15 0.02 0.015  0.2 0.02 0.015  0.25 0.02 0.015  0.3 0.02 0.015  0.35 0.02 0.015  0.4 0.02 0.015  0.45 0.02 0.015  0.5 0.02 0.015  0.55 0.02 0.015  0.6 0.02 0.015  0.65 0.02 0.015  0.7 0.02 0.015  0.75 0.02 0.015  0.8 0.02 0.015  0.85 0.02 0.015  0.9 0.02 0.015  0.95 0.02 0.015  1 0.02 0.015  0 0 0.02  0.05 0 0.02  0.1 0 0.02  0.15 0 0.02  0.2 0 0.02  0.25 0 0.02  0.3 0 0.02  0.35 0 0.02  0.4 0 0.02  0.45 0 0.02  0.5 0 0.02  0.55 0 0.02  0.6 0 0.02  0.65 0 0.02  0.7 0 0.02  0.75 0 0.02  0.8 0 0.02  0.85 0 0.02  0.9 0 0.02  0.95 0 0.02  1 0 0.02  0 0.005 0.02  0.05 0.005 0.02  0.1 0.005 0.02  0.15 0.005 0.02  0.2 0.005 0.02  0.25 0.005 0.02  0.3 0.005 0.02  0.35 0.005 0.02  0.4 0.005 0.02  0.45 0.005 0.02  0.5 0.005 0.02  0.55 0.005 0.02  0.6 0.005 0.02  0.65 0.005 0.02  0.7 0.005 0.02  0.75 0.005 0.02  0.8 0.005 0.02  0.85 0.005 0.02  0.9 0.005 0.02  0.95 0.005 0.02  1 0.005 0.02  0 0.01 0.02  0.05 0.01 0.02  0.1 0.01 0.02  0.15 0.01 0.02  0.2 0.01 0.02  0.25 0.01 0.02  0.3 0.01 0.02  0.35 0.01 0.02  0.4 0.01 0.02  0.45 0.01 0.02  0.5 0.01 0.02  0.55 0.01 0.02  0.6 0.01 0.02  0.65 0.01 0.02  0.7 0.01 0.02  0.75 0.01 0.02  0.8 0.01 0.02  0.85 0.01 0.02  0.9 0.01 0.02  0.95 0.01 0.02  1 0.01 0.02  0 0.015 0.02  0.05 0.015 0.02  0.1 0.015 0.02  0.15 0.015 0.02  0.2 0.015 0.02  0.25 0.015 0.02  0.3 0.015 0.02  0.35 0.015 0.02  0.4 0.015 0.02  0.45 0.015 0.02  0.5 0.015 0.02  0.55 0.015 0.02  0.6 0.015 0.02  0.65 0.015 0.02  0.7 0.015 0.02  0.75 0.015 0.02  0.8 0.015 0.02  0.85 0.015 0.02  0.9 0.015 0.02  0.95 0.015 0.02  1 0.015 0.02  0 0.02 0.02  0.05 0.02 0.02  0.1 0.02 0.02  0.15 0.02 0.02  0.2 0.02 0.02  0.25 0.02 0.02  0.3 0.02 0.02  0.35 0.02 0.02  0.4 0.02 0.02  0.45 0.02 0.02  0.5 0.02 0.02  0.55 0.02 0.02  0.6 0.02 0.02  0.65 0.02 0.02  0.7 0.02 0.02  0.75 0.02 0.02  0.8 0.02 0.02  0.85 0.02 0.02  0.9 0.02 0.02  0.95 0.02 0.02  1 0.02 0.02  </DataArray>
</Points>
<Cells>
[...]
<PointData  Vectors="Displacement"> 
<DataArray  type="Float64"  Name="Displacement"  NumberOfComponents="3" format="ascii">0.0000000000000000e+00 0.0000000000000000e+00 0.0000000000000000e+00  5.6366428938635865e-06 5.8892146717660937e-07 5.8892146723364232e-07  1.1854939610696810e-05 1.0603212644179861e-06 1.0603212646391697e-06  1.8103958837520161e-05 1.5224701807656975e-06 1.5224701812514622e-06  2.4353910187660656e-05 1.9839591233067814e-06 1.9839591241503627e-06  3.0603900692250375e-05 2.4453781426804902e-06 2.4453781439677914e-06  3.6853898956365267e-05 2.9067880678631442e-06 2.9067880696730271e-06  4.3103898630114796e-05 3.3681962196678060e-06 3.3681962220718655e-06  4.9353898572159876e-05 3.8296040634591179e-06 3.8296040665218357e-06  5.5603898561725782e-05 4.2910118514748661e-06 4.2910118552542416e-06  6.1853898559850352e-05 4.7524196295128272e-06 4.7524196340593951e-06  6.8103898559508194e-05 5.2138274057315554e-06 5.2138274110887957e-06  7.4353898559442467e-05 5.6752351816017974e-06 5.6752351878077248e-06  8.0603898559427522e-05 6.1366429573924834e-06 6.1366429644778945e-06  8.6853898559422442e-05 6.5980507331546482e-06 6.5980507411455172e-06  9.3103898559420331e-05 7.0594585089021229e-06 7.0594585178171226e-06  9.9353898559418436e-05 7.5208662846385455e-06 7.5208662944932419e-06  1.0560389855941676e-04 7.9822740603661428e-06 7.9822740711734481e-06  1.1185389855941490e-04 8.4436818360886072e-06 8.4436818478565664e-06  1.1810389855941441e-04 8.9050896118071769e-06 8.9050896245417666e-06  1.2435389855941441e-04 9.3664973875261870e-06 9.3664974012272092e-06  0.0000000000000000e+00 0.0000000000000000e+00 0.0000000000000000e+00  5.5796084093381307e-06 4.0855438405788719e-07 5.9602115534772256e-07  1.1808102906554898e-05 8.7353137920811037e-07 1.0602688629419825e-06  1.8057777066732924e-05 1.3350200342623214e-06 1.5224705700606289e-06  2.4307765487634197e-05 1.7964657000733892e-06 1.9839557031289446e-06  3.0557759316265706e-05 2.2578791715088016e-06 2.4453774550144321e-06  3.6807758068447027e-05 2.7192882440142722e-06 2.9067879351243142e-06  4.3057757832922573e-05 3.1806962503847309e-06 3.3681961977764906e-06  4.9307757791053385e-05 3.6421040689011645e-06 3.8296040621084374e-06  5.5557757783509062e-05 4.1035118524448236e-06 4.2910118544600855e-06  6.1807757782153202e-05 4.5649196296866033e-06 4.7524196339154351e-06  6.8057757781906684e-05 5.0263274057628513e-06 5.2138274110618092e-06  7.4307757781859985e-05 5.4877351816075213e-06 5.6752351878016635e-06  8.0557757781850054e-05 5.9491429573935953e-06 6.1366429644755178e-06  8.6807757781847021e-05 6.4105507331549020e-06 6.5980507411437376e-06  9.3057757781846143e-05 6.8719585089022106e-06 7.0594585178153972e-06  9.9307757781845279e-05 7.3333662846386095e-06 7.5208662944914817e-06  1.0555775778184418e-04 7.7947740603661959e-06 7.9822740711716439e-06  1.1180775778184289e-04 8.2561818360886517e-06 8.4436818478547114e-06  1.1805775778184248e-04 8.7175896118071859e-06 8.9050896245398710e-06  1.2430775778184253e-04 9.1789973875261858e-06 9.3664974012253051e-06  0.0000000000000000e+00 0.0000000000000000e+00 0.0000000000000000e+00  5.5307941602437494e-06 2.2765633929464909e-07 5.9646800673261109e-07  1.1761496767131130e-05 6.8629905918436950e-07 1.0603907914623529e-06  1.8011616911152619e-05 1.1476102294259451e-06 1.5224701717614226e-06  2.4261619825627778e-05 1.6089823258595861e-06 1.9839586556667806e-06  3.0511617611834016e-05 2.0703823677061504e-06 2.4453781820044645e-06  3.6761617113851796e-05 2.5317888336933364e-06 2.9067880594073193e-06  4.3011617023790682e-05 2.9931963569215095e-06 3.3681962199683790e-06  4.9261617007794169e-05 3.4546040880692241e-06 3.8296040660188192e-06  5.5511617004905519e-05 3.9160118558877606e-06 4.2910118551599279e-06  6.1761617004386324e-05 4.3774196303051572e-06 4.7524196340396702e-06  6.8011617004292544e-05 4.8388274058740325e-06 5.2138274110829952e-06  7.4261617004275172e-05 5.3002351816275431e-06 5.6752351878042690e-06  8.0511617004272085e-05 5.7616429573972380e-06 6.1366429644747097e-06  8.6761617004271410e-05 6.2230507331555751e-06 6.5980507411422502e-06  9.3011617004271969e-05 6.6844585089023450e-06 7.0594585178137184e-06  9.9261617004272107e-05 7.1458662846386668e-06 7.5208662944897428e-06  1.0551161700427160e-04 7.6072740603662371e-06 7.9822740711698312e-06  1.1176161700427083e-04 8.0686818360886828e-06 8.4436818478528665e-06  1.1801161700427054e-04 8.5300896118071898e-06 8.9050896245379719e-06  1.2426161700427061e-04 8.9914973875261880e-06 9.3664974012233925e-06  0.0000000000000000e+00 0.0000000000000000e+00 0.0000000000000000e+00  5.4897452908284032e-06 4.8504436145804561e-08 5.9802661256787398e-07  1.1715218537164634e-05 4.9945352509252979e-07 1.0610205670483152e-06  1.7965439912645277e-05 9.6026332377517764e-07 1.5225842298315811e-06  2.4215473191850237e-05 1.4215126887113786e-06 1.9839790727033773e-06  3.0465475728739317e-05 1.8828877655050123e-06 2.4453821529730405e-06  3.6715476129401649e-05 2.3442898055665561e-06 2.9067887874874170e-06  4.2965476209091264e-05 2.8056965321251523e-06 3.3681963528091648e-06  4.9215476223482200e-05 3.2671041196296574e-06 3.8296040900304372e-06  5.5465476226106670e-05 3.7285118615600773e-06 4.2910118594954990e-06  6.1715476226583776e-05 4.1899196313241189e-06 4.7524196348194073e-06  6.7965476226671939e-05 4.6513274060570125e-06 5.2138274112221365e-06  7.4215476226689207e-05 5.1127351816603941e-06 5.6752351878280519e-06  8.0465476226693954e-05 5.5741429574031373e-06 6.1366429644776929e-06  8.6715476226695799e-05 6.0355507331566225e-06 6.5980507411414269e-06  9.2965476226697754e-05 6.4969585089025175e-06 7.0594585178121590e-06  9.9215476226698922e-05 6.9583662846387088e-06 7.5208662944880047e-06  1.0546547622669907e-04 7.4197740603662621e-06 7.9822740711680152e-06  1.1171547622669891e-04 7.8811818360887104e-06 8.4436818478510013e-06  1.1796547622669854e-04 8.3425896118071835e-06 8.9050896245360475e-06  1.2421547622669878e-04 8.8039973875261818e-06 9.3664974012214816e-06  0.0000000000000000e+00 0.0000000000000000e+00 0.0000000000000000e+00  5.4547540610101085e-06 -1.2620893801780781e-07 6.1001934427427431e-07  1.1669118450491922e-05 3.1339152224099489e-07 1.0631977065027022e-06  1.7919260951499896e-05 7.7298851286550408e-07 1.5229724555511953e-06  2.4169328339076361e-05 1.2340530317684380e-06 1.9840425452987774e-06  3.0419334397513194e-05 1.6953945804041903e-06 2.4453931876862300e-06  3.6669335253916402e-05 2.1567909798323160e-06 2.9067907126583653e-06  4.2919335415111654e-05 2.6181967367526991e-06 3.3681966933083937e-06  4.9169335443055301e-05 3.0796041557212888e-06 3.8296041503684404e-06  5.5419335448026682e-05 3.5410118679551135e-06 4.2910118702394538e-06  6.1669335448912593e-05 4.0024196324620413e-06 4.7524196367360412e-06  6.7919335449075267e-05 4.4638274062599993e-06 5.2138274115637576e-06  7.4169335449107620e-05 4.9252351816966290e-06 5.6752351878879626e-06  8.0419335449116594e-05 5.3866429574095812e-06 6.1366429644871145e-06  8.6669335449120378e-05 5.8480507331577293e-06 6.5980507411417301e-06  9.2919335449123607e-05 6.3094585089026789e-06 7.0594585178108055e-06  9.9169335449125751e-05 6.7708662846387348e-06 7.5208662944863072e-06  1.0541933544912653e-04 7.2322740603662694e-06 7.9822740711662025e-06  1.1166933544912688e-04 7.6936818360887262e-06 8.4436818478491396e-06  1.1791933544912663e-04 8.1550896118071891e-06 8.9050896245341247e-06  1.2416933544912690e-04 8.6164973875261722e-06 9.3664974012195723e-06  0.0000000000000000e+00 0.0000000000000000e+00 0.0000000000000000e+00  5.5796084093271303e-06 5.9602115529050050e-07 4.0855438411487282e-07  1.1808102906533536e-05 1.0602688627209088e-06 8.7353137942924431e-07  1.8057777066701865e-05 1.5224705695753432e-06 1.3350200347480342e-06  2.4307765487594193e-05 1.9839557022862019e-06 1.7964657009169258e-06  3.0557759316217439e-05 2.4453774537283045e-06 2.2578791727960588e-06  3.6807758068391251e-05 2.9067879333159103e-06 2.7192882458241148e-06  4.3057757832859987e-05 3.3681961953741985e-06 3.1806962527887506e-06  4.9307757790984660e-05 3.8296040590477593e-06 3.6421040719638399e-06  5.5557757783434950e-05 4.2910118506830030e-06 4.1035118562241668e-06  6.1807757782074313e-05 4.7524196293713786e-06 4.5649196342331365e-06  6.8057757781823743e-05 5.2138274057073082e-06 5.0263274111200585e-06  7.4307757781773615e-05 5.6752351815986591e-06 5.4877351878134174e-06  8.0557757781760811e-05 6.1366429573932110e-06 5.9491429644789810e-06  8.6807757781755515e-05 6.5980507331561322e-06 6.4105507411457430e-06  9.3057757781752956e-05 7.0594585089037992e-06 6.8719585178171875e-06  9.9307757781750723e-05 7.5208662846403048e-06 7.3333662944932915e-06  1.0555775778174858e-04 7.9822740603679555e-06 7.7947740711734892e-06  1.1180775778174655e-04 8.4436818360904605e-06 8.2561818478565974e-06  1.1805775778174578e-04 8.9050896118090793e-06 8.7175896245417638e-06  1.2430775778174590e-04 9.3664973875280996e-06 9.1789974012272063e-06  0.0000000000000000e+00 0.0000000000000000e+00 0.0000000000000000e+00  5.5192429166400442e-06 4.0879426955460316e-07 4.0879426961157512e-07  1.1761449679800767e-05 8.7261946941552516e-07 8.7261946963636910e-07  1.8011604789687038e-05 1.3349205676799242e-06 1.3349205681649927e-06  2.4261622469324841e-05 1.7964505326538554e-06 1.7964505334963997e-06  3.0511618115391638e-05 2.2578768653771531e-06 2.2578768666630965e-06  3.6761617201797519e-05 2.7192878534586614e-06 2.7192878552668963e-06  4.3011617038815291e-05 3.1806961829954024e-06 3.1806961853975434e-06  4.9261617010388896e-05 3.6421040569744963e-06 3.6421040600350313e-06  5.5511617005305610e-05 4.1035118503238404e-06 4.1035118541007992e-06  6.1761617004392423e-05 4.5649196293081481e-06 4.5649196338520945e-06  6.8011617004224862e-05 5.0263274056962008e-06 5.0263274110506077e-06  7.4261617004191553e-05 5.4877351815967970e-06 5.4877351877997167e-06  8.0511617004183424e-05 5.9491429573929778e-06 5.9491429644752151e-06  8.6761617004180012e-05 6.4105507331561556e-06 6.4105507411437051e-06  9.3011617004178755e-05 6.8719585089038513e-06 6.8719585178154020e-06  9.9261617004177551e-05 7.3333662846403705e-06 7.3333662944915128e-06  1.0551161700417597e-04 7.7947740603680119e-06 7.7947740711716749e-06  1.1176161700417449e-04 8.2561818360905084e-06 8.2561818478547356e-06  1.1801161700417386e-04 8.7175896118090883e-06 8.7175896245398732e-06  1.2426161700417401e-04 9.1789973875281018e-06 9.1789974012253056e-06  0.0000000000000000e+00 0.0000000000000000e+00 0.0000000000000000e+00  5.4697896889817946e-06 2.2536327394129169e-07 4.0925902467115779e-07  1.1714966121948718e-05 6.8537820756784630e-07 8.7278250068663209e-07  1.7965456100348917e-05 1.1474732611384386e-06 1.3349334339490059e-06  2.4215478281048563e-05 1.6089590018769859e-06 1.7964491529917909e-06  3.0465476752627337e-05 2.0703779888883066e-06 2.2578763850775855e-06  3.6715476322843340e-05 2.5317880131336644e-06 2.7192877137513353e-06  4.2965476244180905e-05 2.9931962080484234e-06 3.1806961556285268e-06  4.9215476229815405e-05 3.4546040611628024e-06 3.6421040542846466e-06  5.5465476227189294e-05 3.9160118510518691e-06 4.1035118530373621e-06  6.1715476226713569e-05 4.3774196294369722e-06 4.5649196336570914e-06  6.7965476226626565e-05 4.8388274057192753e-06 5.0263274110141481e-06  7.4215476226609559e-05 5.3002351816009946e-06 5.4877351877918977e-06  8.0465476226605971e-05 5.7616429573937813e-06 5.9491429644724927e-06  8.6715476226604537e-05 6.2230507331563238e-06 6.4105507411418442e-06  9.2965476226604607e-05 6.6844585089038993e-06 6.8719585178136393e-06  9.9215476226604353e-05 7.1458662846404117e-06 7.3333662944897391e-06  1.0546547622660341e-04 7.6072740603680506e-06 7.7947740711698487e-06  1.1171547622660252e-04 8.0686818360905496e-06 8.2561818478528840e-06  1.1796547622660194e-04 8.5300896118090922e-06 8.7175896245379708e-06  1.2421547622660213e-04 8.9914973875281023e-06 9.1789974012233913e-06  0.0000000000000000e+00 0.0000000000000000e+00 0.0000000000000000e+00  5.4289423312155040e-06 4.2999230643577143e-08 4.1066784847186452e-07  1.1668795584581827e-05 4.9791882104802413e-07 8.7318996875627653e-07  1.7919307003207536e-05 9.5999214876009499e-07 1.3349868234106419e-06  2.4169336235394736e-05 1.4214646838837596e-06 1.7964585173959566e-06  3.0419335719010088e-05 1.8828793255000121e-06 2.2578782574921738e-06  3.6669335493484445e-05 2.3442882738234781e-06 2.7192880876243726e-06  4.2919335456778458e-05 2.8056962584841690e-06 3.1806962263471378e-06  4.9169335450372838e-05 3.2671040706254290e-06 3.6421040672150975e-06  5.5419335449259454e-05 3.7285118527908096e-06 4.1035118553842346e-06  6.1669335449066753e-05 4.1899196297532489e-06 4.5649196340799192e-06  6.7919335449033864e-05 4.6513274057765404e-06 5.0263274110891943e-06  7.4169335449028622e-05 5.1127351816113450e-06 5.4877351878041373e-06  8.0419335449028679e-05 5.5741429573956580e-06 5.9491429644733668e-06  8.6669335449029061e-05 6.0355507331566606e-06 6.4105507411406143e-06  9.2919335449030433e-05 6.4969585089039456e-06 6.8719585178119834e-06  9.9169335449031154e-05 6.9583662846404325e-06 7.3333662944879722e-06  1.0541933544903087e-04 7.4197740603680790e-06 7.7947740711680140e-06  1.1166933544903050e-04 7.8811818360905806e-06 8.2561818478510137e-06  1.1791933544902994e-04 8.3425896118091012e-06 8.7175896245360446e-06  1.2416933544903024e-04 8.8039973875280978e-06 9.1789974012214821e-06  0.0000000000000000e+00 0.0000000000000000e+00 0.0000000000000000e+00  5.3950320823621237e-06 -1.3887388439707349e-07 4.1538513373421471e-07  1.1622962519697759e-05 3.1059655005990637e-07 8.7435546514748269e-07  1.7873155907718803e-05 7.7252314098006666e-07 1.3352108271459361e-06  2.4123196514095635e-05 1.2339755108357757e-06 1.7964993835821607e-06  3.0373195200551610e-05 1.6953817905794299e-06 2.2578858334748778e-06  3.6623194757808681e-05 2.1567887572048558e-06 2.7192894705386770e-06  4.2873194685840624e-05 2.6181963483891571e-06 3.1806964795796457e-06  4.9123194673904679e-05 3.0796040871985884e-06 3.6421041130965955e-06  5.5373194671865277e-05 3.5410118558196899e-06 4.1035118636727950e-06  6.1623194671515889e-05 4.0024196303033668e-06 4.5649196355727191e-06  6.7873194671458294e-05 4.4638274058759927e-06 5.0263274113567288e-06  7.4123194671450680e-05 4.9252351816292408e-06 5.4877351878509562e-06  8.0373194671451930e-05 5.3866429573988433e-06 5.9491429644804387e-06  8.6623194671453776e-05 5.8480507331571999e-06 6.4105507411404830e-06  9.2873194671456286e-05 6.3094585089040062e-06 6.8719585178105290e-06  9.9123194671457969e-05 6.7708662846404373e-06 7.3333662944862374e-06  1.0537319467145832e-04 7.2322740603680863e-06 7.7947740711661895e-06  1.1162319467145845e-04 7.6936818360905930e-06 8.2561818478491435e-06  1.1787319467145809e-04 8.1550896118091085e-06 8.7175896245341303e-06  1.2412319467145836e-04 8.6164973875280898e-06 9.1789974012195627e-06  0.0000000000000000e+00 0.0000000000000000e+00 0.0000000000000000e+00  5.5307941602218367e-06 5.9646800667517866e-07 2.2765633935188983e-07  1.1761496767088443e-05 1.0603907912414486e-06 6.8629905940575829e-07  1.8011616911090572e-05 1.5224701712766758e-06 1.1476102299119008e-06  2.4261619825547784e-05 1.9839586548249259e-06 1.6089823267033410e-06  3.0511617611737577e-05 2.4453781807195583e-06 2.0703823689936117e-06  3.6761617113740313e-05 2.9067880576004380e-06 2.5317888355033611e-06  4.3011617023665565e-05 3.3681962175678923e-06 2.9931963593256952e-06  4.9261617007656787e-05 3.8296040629602121e-06 3.4546040911320440e-06  5.5511617004757207e-05 4.2910118513851806e-06 3.9160118596672259e-06  6.1761617004228654e-05 4.7524196294981583e-06 4.3774196348517997e-06  6.8011617004126742e-05 5.2138274057312429e-06 4.8388274112313287e-06  7.4261617004102486e-05 5.6752351816042139e-06 5.3002351878335138e-06  8.0511617004093680e-05 6.1366429573955200e-06 5.7616429644826754e-06  8.6761617004088546e-05 6.5980507331579084e-06 6.2230507411464576e-06  9.3011617004085689e-05 7.0594585089055381e-06 6.6844585178173575e-06  9.9261617004082995e-05 7.5208662846420725e-06 7.1458662944933649e-06  1.0551161700408042e-04 7.9822740603697631e-06 7.6072740711735465e-06  1.1176161700407819e-04 8.4436818360923138e-06 8.0686818478566318e-06  1.1801161700407720e-04 8.9050896118109733e-06 8.5300896245417626e-06  1.2426161700407746e-04 9.3664973875300224e-06 8.9914974012272018e-06  0.0000000000000000e+00 0.0000000000000000e+00 0.0000000000000000e+00  5.4697896889708865e-06 4.0925902461429101e-07 2.2536327399835463e-07  1.1714966121927388e-05 8.7278250046623804e-07 6.8537820778877801e-07  1.7965456100317895e-05 1.3349334334647322e-06 1.1474732616235883e-06  2.4215478281008559e-05 1.7964491521503747e-06 1.6089590027196046e-06  3.0465476752579151e-05 2.2578763837930812e-06 2.0703779901743199e-06  3.6715476322787612e-05 2.7192877119448216e-06 2.5317880149419574e-06  4.2965476244118346e-05 3.1806961532283709e-06 2.9931962104506211e-06  4.9215476229746714e-05 3.6421040512263389e-06 3.4546040642233840e-06  5.5465476227115100e-05 4.1035118492628774e-06 3.9160118548288661e-06  6.1715476226634748e-05 4.5649196291158064e-06 4.3774196339809490e-06  6.7965476226543705e-05 5.0263274056625964e-06 4.8388274110737119e-06  7.4215476226523202e-05 5.4877351815920053e-06 5.3002351878039320e-06  8.0465476226516714e-05 5.9491429573934394e-06 5.7616429644760304e-06  8.6715476226513152e-05 6.4105507331576108e-06 6.2230507411438869e-06  9.2965476226511488e-05 6.8719585089055403e-06 6.6844585178154576e-06  9.9215476226509783e-05 7.3333662846421374e-06 7.1458662944915565e-06  1.0546547622650788e-04 7.7947740603698296e-06 7.6072740711717186e-06  1.1171547622650617e-04 8.2561818360923685e-06 8.0686818478547751e-06  1.1796547622650535e-04 8.7175896118109856e-06 8.5300896245398737e-06  1.2421547622650558e-04 9.1789973875300144e-06 8.9914974012252959e-06  0.0000000000000000e+00 0.0000000000000000e+00 0.0000000000000000e+00  5.4202399300780160e-06 2.2453923237187059e-07 2.2453923242854951e-07  1.1668518610848406e-05 6.8496491905147389e-07 6.8496491927169928e-07  1.7919322551234256e-05 1.1473853999050637e-06 1.1473854003891792e-06  2.4169337905387422e-05 1.6089426619976562e-06 1.6089426628389268e-06  3.0419335886708056e-05 2.0703755315338971e-06 2.0703755328182693e-06  3.6669335523562585e-05 2.5317876143137459e-06 2.5317876161201381e-06  4.2919335461726567e-05 2.9931961419242555e-06 2.9931961443243009e-06  4.9169335451156046e-05 3.4546040497674878e-06 3.4546040528256918e-06  5.5419335449336154e-05 3.9160118490507893e-06 3.9160118528251825e-06  6.1669335449015023e-05 4.3774196290816995e-06 4.3774196336229057e-06  6.7919335448955856e-05 4.8388274056568795e-06 4.8388274110083633e-06  7.4169335448943106e-05 5.3002351815910792e-06 5.3002351877909157e-06  8.0419335448939585e-05 5.7616429573933434e-06 5.7616429644723458e-06  8.6669335448937690e-05 6.2230507331576367e-06 6.2230507411418294e-06  9.2919335448937273e-05 6.6844585089055680e-06 6.6844585178136424e-06  9.9169335448936598e-05 7.1458662846421879e-06 7.1458662944897591e-06  1.0541933544893529e-04 7.6072740603698878e-06 7.6072740711698806e-06  1.1166933544893419e-04 8.0686818360924097e-06 8.0686818478529099e-06  1.1791933544893342e-04 8.5300896118109997e-06 8.5300896245379764e-06  1.2416933544893367e-04 8.9914973875300166e-06 8.9914974012233833e-06  0.0000000000000000e+00 0.0000000000000000e+00 0.0000000000000000e+00  5.3797689940687813e-06 4.1286634554509490e-08 2.2515928012882968e-07  1.1622401660128665e-05 4.9721028967398722e-07 6.8519574366016195e-07  1.7873187818211907e-05 9.5989368313574356e-07 1.1474388866625412e-06  2.4123196342672521e-05 1.4214477448491410e-06 1.6089526391155751e-06  3.0373194838708168e-05 1.8828763296985254e-06 2.0703772329000120e-06  3.6623194695367147e-05 2.3442877103430969e-06 2.5317878747099240e-06  4.2873194676284236e-05 2.8056961511278302e-06 2.9931961845739005e-06  4.9123194672328209e-05 3.2671040504959112e-06 3.4546040591417577e-06  5.5373194671545295e-05 3.7285118490884748e-06 3.9160118538640413e-06  6.1623194671396112e-05 4.1899196290793876e-06 4.3774196337991910