<?xml version="1.0"?>
<VTKFile type="UnstructuredGrid"  version="0.1"  >
<UnstructuredGrid>
<Piece  NumberOfPoints="1470" NumberOfCells="6480">
<Points>
<DataArray  type="Float64"  NumberOfComponents="3"  format="ascii">0 0 0  0.05 0 0  0.1 0 0  0.15 0 0  0.2 0 0  0.25 0 0  0.3 0 0  0.35 0 0  0.4 0 0  0.45 0 0  0.5 0 0  0.55 0 0  0.6 0 0  0.65 0 0  0.7 0 0  0.75 0 0  0.8 0 0  0.85 0 0  0.9 0 0  0.95 0 0  1 0 0  0 0.05 0  0.05 0.05 0  0.1 0.05 0  0.15 0.05 0  0.2 0.05 0  0.25 0.05 0  0.3 0.05 0  0.35 0.05 0  0.4 0.05 0  0.45 0.05 0  0.5 0.05 0  0.55 0.05 0  0.6 0.05 0  0.65 0.05 0  0.7 0.05 0  0.75 0.05 0  0.8 0.05 0  0.85 0.05 0  0.9 0.05 0  0.95 0.05 0  1 0.05 0  0 0.09999999999999999 0  0.05 0.09999999999999999 0  0.1 0.09999999999999999 0  0.15 0.09999999999999999 0  0.2 0.09999999999999999 0  0.25 0.09999999999999999 0  0.3 0.09999999999999999 0  0.35 0.09999999999999999 0  0.4 0.09999999999999999 0  0.45 0.09999999999999999 0  0.5 0.09999999999999999 0  0.55 0.09999999999999999 0  0.6 0.09999999999999999 0  0.65 0.09999999999999999 0  0.7 0.09999999999999999 0  0.75 0.09999999999999999 0  0.8 0.09999999999999999 0  0.85 0.09999999999999999 0  0.9 0.09999999999999999 0  0.95 0.09999999999999999 0  1 0.09999999999999999 0  0 0.15 0  0.05 0.15 0  0.1 0.15 0  0.15 0.15 0  0.2 0.15 0  0.25 0.15 0  0.3 0.15 0  0.35 0.15 0  0.4 0.15 0  0.45 0.15 0  0.5 0.15 0  0.55 0.15 0  0.6 0.15 0  0.65 0.15 0  0.7 0.15 0  0.75 0.15 0  0.8 0.15 0  0.85 0.15 0  0.9 0.15 0  0.95 0.15 0  1 0.15 0  0 0.2 0  0.05 0.2 0  0.1 0.2 0  0.15 0.2 0  0.2 0.2 0  0.25 0.2 0  0.3 0.2 0  0.35 0.2 0  0.4 0.2 0  0.45 0.2 0  0.5 0.2 0  0.55 0.2 0  0.6 0.2 0  0.65 0.2 0  0.7 0.2 0  0.75 0.2 0  0.8 0.2 0  0.85 0.2 0  0.9 0.2 0  0.95 0.2 0  1 0.2 0  0 0.25 0  0.05 0.25 0  0.1 0.25 0  0.15 0.25 0  0.2 0.25 0  0.25 0.25 0  0.3 0.25 0  0.35 0.25 0  0.4 0.25 0  0.45 0.25 0  0.5 0.25 0  0.55 0.25 0  0.6 0.25 0  0.65 0.25 0  0.7 0.25 0  0.75 0.25 0  0.8 0.25 0  0.85 0.25 0  0.9 0.25 0  0.95 0.25 0  1 0.25 0  0 0.3 0  0.05 0.3 0  0.1 0.3 0  0.15 0.3 0  0.2 0.3 0  0.25 0.3 0  0.3 0.3 0  0.35 0.3 0  0.4 0.3 0  0.45 0.3 0  0.5 0.3 0  0.55 0.3 0  0.6 0.3 0  0.65 0.3 0  0.7 0.3 0  0.75 0.3 0  0.8 0.3 0  0.85 0.3 0  0.9 0.3 0  0.95 0.3 0  1 0.3 0  0 0 0.05  0.05 0 0.05  0.1 0 0.05  0.15 0 0.05  0.2 0 0.05  0.25 0 0.05  0.3 0 0.05  0.35 0 0.05  0.4 0 0.05  0.45 0 0.05  0.5 0 0.05  0.55 0 0.05  0.6 0 0.05  0.65 0 0.05  0.7 0 0.05  0.75 0 0.05  0.8 0 0.05  0.85 0 0.05  0.9 0 0.05  0.95 0 0.05  1 0 0.05  0 0.05 0.05  0.05 0.05 0.05  0.1 0.05 0.05  0.15 0.05 0.05  0.2 0.05 0.05  0.25 0.05 0.05  0.3 0.05 0.05  0.35 0.05 0.05  0.4 0.05 0.05  0.45 0.05 0.05  0.5 0.05 0.05  0.55 0.05 0.05  0.6 0.05 0.05  0.65 0.05 0.05  0.7 0.05 0.05  0.75 0.05 0.05  0.8 0.05 0.05  0.85 0.05 0.05  0.9 0.05 0.05  0.95 0.05 0.05  1 0.05 0.05  0 0.09999999999999999 0.05  0.05 0.09999999999999999 0.05  0.1 0.09999999999999999 0.05  0.15 0.09999999999999999 0.05  0.2 0.09999999999999999 0.05  0.25 0.09999999999999999 0.05  0.3 0.09999999999999999 0.05  0.35 0.09999999999999999 0.05  0.4 0.09999999999999999 0.05  0.45 0.09999999999999999 0.05  0.5 0.09999999999999999 0.05  0.55 0.09999999999999999 0.05  0.6 0.09999999999999999 0.05  0.65 0.09999999999999999 0.05  0.7 0.09999999999999999 0.05  0.75 0.09999999999999999 0.05  0.8 0.09999999999999999 0.05  0.85 0.09999999999999999 0.05  0.9 0.09999999999999999 0.05  0.95 0.09999999999999999 0.05  1 0.09999999999999999 0.05  0 0.15 0.05  0.05 0.15 0.05  0.1 0.15 0.05  0.15 0.15 0.05  0.2 0.15 0.05  0.25 0.15 0.05  0.3 0.15 0.05  0.35 0.15 0.05  0.4 0.15 0.05  0.45 0.15 0.05  0.5 0.15 0.05  0.55 0.15 0.05  0.6 0.15 0.05  0.65 0.15 0.05  0.7 0.15 0.05  0.75 0.15 0.05  0.8 0.15 0.05  0.85 0.15 0.05  0.9 0.15 0.05  0.95 0.15 0.05  1 0.15 0.05  0 0.2 0.05  0.05 0.2 0.05  0.1 0.2 0.05  0.15 0.2 0.05  0.2 0.2 0.05  0.25 0.2 0.05  0.3 0.2 0.05  0.35 0.2 0.05  0.4 0.2 0.05  0.45 0.2 0.05  0.5 0.2 0.05  0.55 0.2 0.05  0.6 0.2 0.05  0.65 0.2 0.05  0.7 0.2 0.05  0.75 0.2 0.05  0.8 0.2 0.05  0.85 0.2 0.05  0.9 0.2 0.05  0.95 0.2 0.05  1 0.2 0.05  0 0.25 0.05  0.05 0.25 0.05  0.1 0.25 0.05  0.15 0.25 0.05  0.2 0.25 0.05  0.25 0.25 0.05  0.3 0.25 0.05  0.35 0.25 0.05  0.4 0.25 0.05  0.45 0.25 0.05  0.5 0.25 0.05  0.55 0.25 0.05  0.6 0.25 0.05  0.65 0.25 0.05  0.7 0.25 0.05  0.75 0.25 0.05  0.8 0.25 0.05  0.85 0.25 0.05  0.9 0.25 0.05  0.95 0.25 0.05  1 0.25 0.05  0 0.3 0.05  0.05 0.3 0.05  0.1 0.3 0.05  0.15 0.3 0.05  0.2 0.3 0.05  0.25 0.3 0.05  0.3 0.3 0.05  0.35 0.3 0.05  0.4 0.3 0.05  0.45 0.3 0.05  0.5 0.3 0.05  0.55 0.3 0.05  0.6 0.3 0.05  0.65 0.3 0.05  0.7 0.3 0.05  0.75 0.3 0.05  0.8 0.3 0.05  0.85 0.3 0.05  0.9 0.3 0.05  0.95 0.3 0.05  1 0.3 0.05  0 0 0.1  0.05 0 0.1  0.1 0 0.1  0.15 0 0.1  0.2 0 0.1  0.25 0 0.1  0.3 0 0.1  0.35 0 0.1  0.4 0 0.1  0.45 0 0.1  0.5 0 0.1  0.55 0 0.1  0.6 0 0.1  0.65 0 0.1  0.7 0 0.1  0.75 0 0.1  0.8 0 0.1  0.85 0 0.1  0.9 0 0.1  0.95 0 0.1  1 0 0.1  0 0.05 0.1  0.05 0.05 0.1  0.1 0.05 0.1  0.15 0.05 0.1  0.2 0.05 0.1  0.25 0.05 0.1  0.3 0.05 0.1  0.35 0.05 0.1  0.4 0.05 0.1  0.45 0.05 0.1  0.5 0.05 0.1  0.55 0.05 0.1  0.6 0.05 0.1  0.65 0.05 0.1  0.7 0.05 0.1  0.75 0.05 0.1  0.8 0.05 0.1  0.85 0.05 0.1  0.9 0.05 0.1  0.95 0.05 0.1  1 0.05 0.1  0 0.09999999999999999 0.1  0.05 0.09999999999999999 0.1  0.1 0.09999999999999999 0.1  0.15 0.09999999999999999 0.1  0.2 0.09999999999999999 0.1  0.25 0.09999999999999999 0.1  0.3 0.09999999999999999 0.1  0.35 0.09999999999999999 0.1  0.4 0.09999999999999999 0.1  0.45 0.09999999999999999 0.1  0.5 0.09999999999999999 0.1  0.55 0.09999999999999999 0.1  0.6 0.09999999999999999 0.1  0.65 0.09999999999999999 0.1  0.7 0.09999999999999999 0.1  0.75 0.09999999999999999 0.1  0.8 0.09999999999999999 0.1  0.85 0.09999999999999999 0.1  0.9 0.09999999999999999 0.1  0.95 0.09999999999999999 0.1  1 0.09999999999999999 0.1  0 0.15 0.1  0.05 0.15 0.1  0.1 0.15 0.1  0.15 0.15 0.1  0.2 0.15 0.1  0.25 0.15 0.1  0.3 0.15 0.1  0.35 0.15 0.1  0.4 0.15 0.1  0.45 0.15 0.1  0.5 0.15 0.1  0.55 0.15 0.1  0.6 0.15 0.1  0.65 0.15 0.1  0.7 0.15 0.1  0.75 0.15 0.1  0.8 0.15 0.1  0.85 0.15 0.1  0.9 0.15 0.1  0.95 0.15 0.1  1 0.15 0.1  0 0.2 0.1  0.05 0.2 0.1  0.1 0.2 0.1  0.15 0.2 0.1  0.2 0.2 0.1  0.25 0.2 0.1  0.3 0.2 0.1  0.35 0.2 0.1  0.4 0.2 0.1  0.45 0.2 0.1  0.5 0.2 0.1  0.55 0.2 0.1  0.6 0.2 0.1  0.65 0.2 0.1  0.7 0.2 0.1  0.75 0.2 0.1  0.8 0.2 0.1  0.85 0.2 0.1  0.9 0.2 0.1  0.95 0.2 0.1  1 0.2 0.1  0 0.25 0.1  0.05 0.25 0.1  0.1 0.25 0.1  0.15 0.25 0.1  0.2 0.25 0.1  0.25 0.25 0.1  0.3 0.25 0.1  0.35 0.25 0.1  0.4 0.25 0.1  0.45 0.25 0.1  0.5 0.25 0.1  0.55 0.25 0.1  0.6 0.25 0.1  0.65 0.25 0.1  0.7 0.25 0.1  0.75 0.25 0.1  0.8 0.25 0.1  0.85 0.25 0.1  0.9 0.25 0.1  0.95 0.25 0.1  1 0.25 0.1  0 0.3 0.1  0.05 0.3 0.1  0.1 0.3 0.1  0.15 0.3 0.1  0.2 0.3 0.1  0.25 0.3 0.1  0.3 0.3 0.1  0.35 0.3 0.1  0.4 0.3 0.1  0.45 0.3 0.1  0.5 0.3 0.1  0.55 0.3 0.1  0.6 0.3 0.1  0.65 0.3 0.1  0.7 0.3 0.1  0.75 0.3 0.1  0.8 0.3 0.1  0.85 0.3 0.1  0.9 0.3 0.1  0.95 0.3 0.1  1 0.3 0.1  0 0 0.15  0.05 0 0.15  0.1 0 0.15  0.15 0 0.15  0.2 0 0.15  0.25 0 0.15  0.3 0 0.15  0.35 0 0.15  0.4 0 0.15  0.45 0 0.15  0.5 0 0.15  0.55 0 0.15  0.6 0 0.15  0.65 0 0.15  0.7 0 0.15  0.75 0 0.15  0.8 0 0.15  0.85 0 0.15  0.9 0 0.15  0.95 0 0.15  1 0 0.15  0 0.05 0.15  0.05 0.05 0.15  0.1 0.05 0.15  0.15 0.05 0.15  0.2 0.05 0.15  0.25 0.05 0.15  0.3 0.05 0.15  0.35 0.05 0.15  0.4 0.05 0.15  0.45 0.05 0.15  0.5 0.05 0.15  0.55 0.05 0.15  0.6 0.05 0.15  0.65 0.05 0.15  0.7 0.05 0.15  0.75 0.05 0.15  0.8 0.05 0.15  0.85 0.05 0.15  0.9 0.05 0.15  0.95 0.05 0.15  1 0.05 0.15  0 0.09999999999999999 0.15  0.05 0.09999999999999999 0.15  0.1 0.09999999999999999 0.15  0.15 0.09999999999999999 0.15  0.2 0.09999999999999999 0.15  0.25 0.09999999999999999 0.15  0.3 0.09999999999999999 0.15  0.35 0.09999999999999999 0.15  0.4 0.09999999999999999 0.15  0.45 0.09999999999999999 0.15  0.5 0.09999999999999999 0.15  0.55 0.09999999999999999 0.15  0.6 0.09999999999999999 0.15  0.65 0.09999999999999999 0.15  0.7 0.09999999999999999 0.15  0.75 0.09999999999999999 0.15  0.8 0.09999999999999999 0.15  0.85 0.09999999999999999 0.15  0.9 0.09999999999999999 0.15  0.95 0.09999999999999999 0.15  1 0.09999999999999999 0.15  0 0.15 0.15  0.05 0.15 0.15  0.1 0.15 0.15  0.15 0.15 0.15  0.2 0.15 0.15  0.25 0.15 0.15  0.3 0.15 0.15  0.35 0.15 0.15  0.4 0.15 0.15  0.45 0.15 0.15  0.5 0.15 0.15  0.55 0.15 0.15  0.6 0.15 0.15  0.65 0.15 0.15  0.7 0.15 0.15  0.75 0.15 0.15  0.8 0.15 0.15  0.85 0.15 0.15  0.9 0.15 0.15  0.95 0.15 0.15  1 0.15 0.15  0 0.2 0.15  0.05 0.2 0.15  0.1 0.2 0.15  0.15 0.2 0.15  0.2 0.2 0.15  0.25 0.2 0.15  0.3 0.2 0.15  0.35 0.2 0.15  0.4 0.2 0.15  0.45 0.2 0.15  0.5 0.2 0.15  0.55 0.2 0.15  0.6 0.2 0.15  0.65 0.2 0.15  0.7 0.2 0.15  0.75 0.2 0.15  0.8 0.2 0.15  0.85 0.2 0.15  0.9 0.2 0.15  0.95 0.2 0.15  1 0.2 0.15  0 0.25 0.15  0.05 0.25 0.15  0.1 0.25 0.15  0.15 0.25 0.15  0.2 0.25 0.15  0.25 0.25 0.15  0.3 0.25 0.15  0.35 0.25 0.15  0.4 0.25 0.15  0.45 0.25 0.15  0.5 0.25 0.15  0.55 0.25 0.15  0.6 0.25 0.15  0.65 0.25 0.15  0.7 0.25 0.15  0.75 0.25 0.15  0.8 0.25 0.15  0.85 0.25 0.15  0.9 0.25 0.15  0.95 0.25 0.15  1 0.25 0.15  0 0.3 0.15  0.05 0.3 0.15  0.1 0.3 0.15  0.15 0.3 0.15  0.2 0.3 0.15  0.25 0.3 0.15  0.3 0.3 0.15  0.35 0.3 0.15  0.4 0.3 0.15  0.45 0.3 0.15  0.5 0.3 0.15  0.55 0.3 0.15  0.6 0.3 0.15  0.65 0.3 0.15  0.7 0.3 0.15  0.75 0.3 0.15  0.8 0.3 0.15  0.85 0.3 0.15  0.9 0.3 0.15  0.95 0.3 0.15  1 0.3 0.15  0 0 0.2  0.05 0 0.2  0.1 0 0.2  0.15 0 0.2  0.2 0 0.2  0.25 0 0.2  0.3 0 0.2  0.35 0 0.2  0.4 0 0.2  0.45 0 0.2  0.5 0 0.2  0.55 0 0.2  0.6 0 0.2  0.65 0 0.2  0.7 0 0.2  0.75 0 0.2  0.8 0 0.2  0.85 0 0.2  0.9 0 0.2  0.95 0 0.2  1 0 0.2  0 0.05 0.2  0.05 0.05 0.2  0.1 0.05 0.2  0.15 0.05 0.2  0.2 0.05 0.2  0.25 0.05 0.2  0.3 0.05 0.2  0.35 0.05 0.2  0.4 0.05 0.2  0.45 0.05 0.2  0.5 0.05 0.2  0.55 0.05 0.2  0.6 0.05 0.2  0.65 0.05 0.2  0.7 0.05 0.2  0.75 0.05 0.2  0.8 0.05 0.2  0.85 0.05 0.2  0.9 0.05 0.2  0.95 0.05 0.2  1 0.05 0.2  0 0
[...]
<PointData  Vectors="Displacement"> 
<DataArray  type="Float64"  Name="Displacement"  NumberOfComponents="3" format="ascii">0.0000000000000000e+00 0.0000000000000000e+00 0.0000000000000000e+00  -3.8723843161092314e-07 -1.3219519649925884e-07 -2.3004609889935360e-07  -6.9633458999950831e-07 -3.0363994963579544e-07 -3.1333650139746633e-07  -9.9728097494313178e-07 -5.9721137273215637e-07 -3.4607700346160079e-07  -1.2890435434388094e-06 -1.0070626860576963e-06 -3.5326450385753256e-07  -1.5679059339482914e-06 -1.5235927560505514e-06 -3.4684118248456441e-07  -1.8315602062295409e-06 -2.1377871419711571e-06 -3.3280536291608782e-07  -2.0786735459792943e-06 -2.8415960734073327e-06 -3.1438729971531238e-07  -2.3084545717279343e-06 -3.6276592608506981e-06 -2.9340033358498166e-07  -2.5204271575328186e-06 -4.4890526901686325e-06 -2.7089294904678218e-07  -2.7143068507342722e-06 -5.4191220127663049e-06 -2.4748943991024075e-07  -2.8899267788488160e-06 -6.4113780806236621e-06 -2.2357701075237895e-07  -3.0471910145617053e-06 -7.4594293643445140e-06 -1.9941369670229063e-07  -3.1860442098029024e-06 -8.5569340115953803e-06 -1.7519562626987758e-07  -3.3064510413818799e-06 -9.6975578816098359e-06 -1.5110606953482543e-07  -3.4083866123418671e-06 -1.0874922768460170e-05 -1.2736318977833013e-07  -3.4918657905237876e-06 -1.2082526393230703e-05 -1.0428406083913112e-07  -3.5571288233825051e-06 -1.3313660132151980e-05 -8.2371972226497201e-08  -3.6052726648302744e-06 -1.4561738230456764e-05 -6.2305191455687902e-08  -3.6389245623802220e-06 -1.5823676991378369e-05 -4.4026171467108897e-08  -3.6548059431501889e-06 -1.7118824529164083e-05 -2.2724779026975768e-08  0.0000000000000000e+00 0.0000000000000000e+00 0.0000000000000000e+00  -2.4634937635447756e-07 -4.7694954308279682e-08 -1.5714332355781410e-07  -4.5288968974593010e-07 -2.2485602726639120e-07 -2.1182639751102622e-07  -6.4967809029748341e-07 -5.2228118977358261e-07 -2.3236522107999110e-07  -8.3964553365816278e-07 -9.3559101199080958e-07 -2.3666662245876651e-07  -1.0219997372925020e-06 -1.4558184566527078e-06 -2.3207535196219692e-07  -1.1953462230076983e-06 -2.0740124415922227e-06 -2.2246112013290392e-07  -1.3585291416320017e-06 -2.7820529732486160e-06 -2.0996911340493231e-07  -1.5107407488733937e-06 -3.5725027504508304e-06 -1.9581146938497704e-07  -1.6514569691634584e-06 -4.4383796086378932e-06 -1.8068309515462701e-07  -1.7803524595744626e-06 -5.3729903039760743e-06 -1.6499122473220391e-07  -1.8972323089089258e-06 -6.3698211823017694e-06 -1.4898420554657645e-07  -2.0019846729572306e-06 -7.4224658540829750e-06 -1.3282547092657465e-07  -2.0945498120091720e-06 -8.5245739888980969e-06 -1.1663842848825320e-07  -2.1748988455451556e-06 -9.6698080847757791e-06 -1.0053653887912786e-07  -2.2430125838276833e-06 -1.0851794569724972e-05 -8.4644686738484723e-08  -2.2988386704491288e-06 -1.2064061494221284e-05 -6.9105196015301020e-08  -2.3421671809433386e-06 -1.3300025151488619e-05 -5.4024599690271147e-08  -2.3723199999074945e-06 -1.4553429807436991e-05 -3.9213395623407751e-08  -2.3881570366667473e-06 -1.5820323770373065e-05 -2.3469238379860723e-08  -2.3936610983428499e-06 -1.7097934624243503e-05 -4.6190237006923741e-09  0.0000000000000000e+00 0.0000000000000000e+00 0.0000000000000000e+00  -1.1887053394409275e-07 -3.3446732973794314e-09 -8.0648452474027993e-08  -2.2026005411147186e-07 -1.7458217911932323e-07 -1.0787235142553686e-07  -3.1884093330662165e-07 -4.7514573068733281e-07 -1.1736528269734020e-07  -4.1365608193319164e-07 -8.9174717959155872e-07 -1.1900117347437583e-07  -5.0433768784638772e-07 -1.4147579660168278e-06 -1.1642646489130495e-07  -5.9052019015486173e-07 -2.0355599470811289e-06 -1.1143884857401107e-07  -6.7174625876456396e-07 -2.7462147012119221e-06 -1.0505977877700329e-07  -7.4761058843498363e-07 -3.5393287367300731e-06 -9.7879752973969583e-08  -8.1781838163732612e-07 -4.4079138142487034e-06 -9.0238707344512309e-08  -8.8217662788661154e-07 -5.3452616108886711e-06 -8.2334047520200414e-08  -9.4056692763101078e-07 -6.3448464130011303e-06 -7.4284391384527091e-08  -9.9292068923402126e-07 -7.4002547452948146e-06 -6.6166709007540594e-08  -1.0392004141352459e-06 -8.5051354417981399e-06 -5.8038399042424034e-08  -1.0793822941764375e-06 -9.6531641252888572e-06 -4.9950521283444499e-08  -1.1134253730636300e-06 -1.0838020897105928e-05 -4.1952335962184147e-08  -1.1411941725776521e-06 -1.2053390753227050e-05 -3.4075559267855623e-08  -1.1622989798568912e-06 -1.3293000228949117e-05 -2.6261787455272343e-08  -1.1760062683029241e-06 -1.4550553995188423e-05 -1.8177836761881846e-08  -1.1822339212278811e-06 -1.5818343616967328e-05 -9.0360824396576893e-09  -1.1852453440677356e-06 -1.7078003622463086e-05 1.6877031545902895e-09  0.0000000000000000e+00 0.0000000000000000e+00 0.0000000000000000e+00  3.2676749457033603e-10 9.6458699895804797e-09 7.0196686358002567e-10  -2.8886766988111616e-11 -1.5742548491051246e-07 1.9980396779409498e-10  -1.9745336380467888e-10 -4.5880758211798743e-07 2.1770738408534449e-10  -2.9992195343234230e-10 -8.7681573509615436e-07 2.5797305285425570e-10  -3.3174627319913973e-10 -1.4009510316398438e-06 2.8443787903602105e-10  -3.2835182646544059e-10 -2.0226991446621045e-06 3.1061497995902259e-10  -3.1675379860718278e-10 -2.7342498055644993e-06 3.4110175025991243e-10  -3.0718161083199207e-10 -3.5282594577874937e-06 3.7497121426079292e-10  -3.0137740436143721e-10 -4.3977502767136821e-06 4.1049643551380574e-10  -2.9844540905958256e-10 -5.3360124100753276e-06 4.4648095031240429e-10  -2.9715828203099147e-10 -6.3365169832773208e-06 4.8233341838099874e-10  -2.9657141216061501e-10 -7.3928487054478963e-06 5.1787293752892557e-10  -2.9608352568450898e-10 -8.4986578773188724e-06 5.5313001844373580e-10  -2.9544363372330424e-10 -9.6476304266753485e-06 5.8815206810774483e-10  -2.9479119705052234e-10 -1.0833480598811984e-05 6.2271119783507135e-10  -2.9338291504584455e-10 -1.2049975944705187e-05 6.5579308917113409e-10  -2.8083269585133637e-10 -1.3290952521946610e-05 6.8557371685239328e-10  -2.2065278670420197e-10 -1.4549918226676010e-05 7.1707773638259012e-10  -1.3174865696357650e-10 -1.5817470922325679e-05 7.8677212575129188e-10  -4.7436796580302200e-10 -1.7070755729305975e-05 8.6530079018072429e-10  0.0000000000000000e+00 0.0000000000000000e+00 0.0000000000000000e+00  1.1952614238385341e-07 -2.5593019330544374e-09 8.2269179110174007e-08  2.2017939474399528e-07 -1.7377516013461252e-07 1.0848267706847697e-07  3.1837334872505261e-07 -4.7476628995511472e-07 1.1787843964775075e-07  4.1303496346798564e-07 -8.9162704572379794e-07 1.1954118318440651e-07  5.0368581772648708e-07 -1.4147402096927946e-06 1.1700325700040109e-07  5.8988001779824670e-07 -2.0355706178650947e-06 1.1206419485204160e-07  6.7112407578352972e-07 -2.7462275107608962e-06 1.0574489837998336e-07  7.4700202686194776e-07 -3.5393371082539194e-06 9.8631642189344558e-08  8.1721792927301970e-07 -4.4079178239385131e-06 9.1060646581153048e-08  8.8158023247793456e-07 -5.3452629051669603e-06 8.3227015186575626e-08  9.3997220260322030e-07 -6.3448465643577509e-06 7.5248229660901861e-08  9.9232647989610541e-07 -7.4002549692862325e-06 6.7200860838488783e-08  1.0386063237097618e-06 -8.5051368970058543e-06 5.9142270223928215e-08  1.0787884633361189e-06 -9.6531686587810777e-06 5.1123497794028600e-08  1.1128331895801654e-06 -1.0838031812312176e-05 4.3193406899687942e-08  1.1406091870953610e-06 -1.2053409658937331e-05 3.5382712971545362e-08  1.1617380588346640e-06 -1.3293007419720301e-05 2.7631975725357317e-08  1.1755292739485750e-06 -1.4550489769056701e-05 1.9609819155836824e-08  1.1819876444438336e-06 -1.5818383979037246e-05 1.0572891977761264e-08  1.1843754203765077e-06 -1.7078546131701058e-05 1.0909198927566536e-11  0.0000000000000000e+00 0.0000000000000000e+00 0.0000000000000000e+00  2.4723741502452169e-07 -4.5091762334336618e-08 1.6040786724666222e-07  4.5246164325015386e-07 -2.2341175877856509e-07 2.1291362862714115e-07  6.4898576708180590e-07 -5.2163259530017162e-07 2.3309100969489735e-07  8.3899855424980291e-07 -9.3535756981513019e-07 2.3727911725261097e-07  1.0213867885699503e-06 -1.4557589471876656e-06 2.3268473889517128e-07  1.1947435428888988e-06 -2.0740143939785589e-06 2.2310669701587125e-07  1.3579297185210180e-06 -2.7820709737377920e-06 2.1066831355086718e-07  1.5101436265220230e-06 -3.5725216757511290e-06 1.9657296546668474e-07  1.6508619458362935e-06 -4.4383963206114332e-06 1.8151100616246514e-07  1.7797590173278415e-06 -5.3730054916593988e-06 1.6588719188557330e-07  1.8966397146544908e-06 -6.3698362097821146e-06 1.4994859105209609e-07  2.0013921285637117e-06 -7.4224817658981068e-06 1.3385801319444248e-07  2.0939564018193078e-06 -8.5245912692969309e-06 1.1773852100805232e-07  2.1743033086311075e-06 -9.6698268360368685e-06 1.0170318745190949e-07  2.2424135582139217e-06 -1.0851816101616092e-05 8.5876130049196603e-08  2.2982389034555670e-06 -1.2064094149395387e-05 7.0398612983552797e-08  2.3415892389947291e-06 -1.3300094637977533e-05 5.5378436763988383e-08  2.3718083909119631e-06 -1.4553557840453361e-05 4.0641701611330943e-08  2.3876690742450012e-06 -1.5820185852369608e-05 2.4964355146363086e-08  2.3935625335125254e-06 -1.7099320853541208e-05 6.3267227990851940e-09  0.0000000000000000e+00 0.0000000000000000e+00 0.0000000000000000e+00  3.8845796018120267e-07 -1.2715510280971501e-07 2.2859159467373217e-07  6.9593012326002734e-07 -3.0206868978297943e-07 3.1466213285378601e-07  9.9680042565705985e-07 -5.9654556253913004e-07 3.4699645659618523e-07  1.2886401602088457e-06 -1.0069059836498302e-06 3.5399011764145409e-07  1.5674677944729532e-06 -1.5236546936594592e-06 3.4753730540705864e-07  1.8310744807714265e-06 -2.1379268869752210e-06 3.3352911919839802e-07  2.0781587030268548e-06 -2.8417565372121752e-06 3.1516003536767746e-07  2.3079265515643842e-06 -3.6278210236151576e-06 2.9423168156204174e-07  2.5198944922274264e-06 -4.4892113020424167e-06 2.7178752341915763e-07  2.7137728753073448e-06 -5.4192779828792633e-06 2.4844941143362259e-07  2.8893920476851305e-06 -6.4115329441441477e-06 2.2460333819812000e-07  3.0466547659974064e-06 -7.4595843067035161e-06 2.0050672207445029e-07  3.1855052259446383e-06 -8.5570892198257137e-06 1.7635528101118190e-07  3.3059084965784501e-06 -9.6977117958995761e-06 1.5233146076922229e-07  3.4078402396763213e-06 -1.0875071683362910e-05 1.2865023597430641e-07  3.4913062301209985e-06 -1.2082668006400904e-05 1.0561808273367005e-07  3.5564779338076070e-06 -1.3313811150495301e-05 8.3714302691957296e-08  3.6042368967792078e-06 -1.4562010313005962e-05 6.3580273632362679e-08  3.6376105865691974e-06 -1.5824679575617584e-05 4.5119305486449602e-08  3.6581044848761488e-06 -1.7119858779056070e-05 2.4851621099151160e-08  0.0000000000000000e+00 0.0000000000000000e+00 0.0000000000000000e+00  -3.3954514985959664e-07 -1.9072441560694265e-07 -1.4213508676020055e-07  -6.6703397938974034e-07 -3.9098891178155540e-07 -2.2087926483980030e-07  -9.8507793592337031e-07 -6.9533226108536828e-07 -2.5568557314793136e-07  -1.2872650035065121e-06 -1.1084470884475389e-06 -2.6675992821186575e-07  -1.5721513735597103e-06 -1.6240499558717484e-06 -2.6494827756384495e-07  -1.8392802290276714e-06 -2.2348475163206170e-06 -2.5590620349046517e-07  -2.0884053783773104e-06 -2.9337601304836018e-06 -2.4270498328799368e-07  -2.3193545656390627e-06 -3.7140019659854379e-06 -2.2706926210385635e-07  -2.5320041573191220e-06 -4.5690012161167372e-06 -2.0999432520927800e-07  -2.7262695626755892e-06 -5.4923255793907376e-06 -1.9207173445242445e-07  -2.9020955604948702e-06 -6.4776304263495490e-06 -1.7366861831501667e-07  -3.0594460915419765e-06 -7.5186237390926020e-06 -1.5503104490877567e-07  -3.1982945746430284e-06 -8.6090405276118214e-06 -1.3634840825644211e-07  -3.3186160279712733e-06 -9.7426200945632989e-06 -1.1779957586296708e-07  -3.4203886617928882e-06 -1.0913079692963575e-05 -9.9592760829268430e-08  -3.5036415792625548e-06 -1.2114085462716539e-05 -8.2001329853959066e-08  -3.5686800252142753e-06 -1.3339280938284767e-05 -6.5369524225438801e-08  -3.6168003710424639e-06 -1.4582764821445007e-05 -4.9995157839149386e-08  -3.6511775222078562e-06 -1.5842031311401465e-05 -3.5909318537901427e-08  -3.6695631763629140e-06 -1.7132979549389282e-05 -2.3743915532930916e-08  0.0000000000000000e+00 0.0000000000000000e+00 0.0000000000000000e+00  -2.0155674747799773e-07 -1.0001772162059862e-07 -9.7869805629439219e-08  -4.2557853568542934e-07 -3.0515153697137062e-07 -1.5090003256079544e-07  -6.3814678230391919e-07 -6.1629976495066788e-07 -1.7362860865420543e-07  -8.3765950440040994e-07 -1.0346785601354333e-06 -1.8029129738090249e-07  -1.0256489661753734e-06 -1.5550019206806104e-06 -1.7839616372710135e-07  -1.2023154961587323e-06 -2.1703724319948347e-06 -1.7180123536872498e-07  -1.3674536317443125e-06 -2.8738384624399441e-06 -1.6256950991523032e-07  -1.5208162941446893e-06 -3.6586490366788215e-06 -1.5183464400400992e-07  -1.6622074139989124e-06 -4.5182368254301194e-06 -1.4023347911292357e-07  -1.7914912960117751e-06 -5.4461656682397832e-06 -1.2813368766763836e-07  -1.9085805280573987e-06 -6.4360863352197358e-06 -1.1575754402256245e-07  -2.0134213961712584e-06 -7.4817038283250419e-06 -1.0325143225866502e-07  -2.1059817084396088e-06 -8.5767524873034766e-06 -9.0727237285470897e-08  -2.1862409509657243e-06 -9.7149735736223794e-06 -7.8289343002269738e-08  -2.2541799026754826e-06 -1.0890088970610172e-05 -6.6052386595377843e-08  -2.3097608793739913e-06 -1.2095771698794989e-05 -5.4144274933372881e-08  -2.3528686262894814e-06 -1.3325675939925440e-05 -4.2670656014456346e-08  -2.3831434143692685e-06 -1.4573872837630359e-05 -3.1607620328037066e-08  -2.4000291972993277e-06 -1.5836666599558859e-05 -2.0747620739694255e-08  -2.4072650568475341e-06 -1.7113769355519698e-05 -1.0500498376032873e-08  0.0000000000000000e+00 0.0000000000000000e+00 0.0000000000000000e+00  -9.5970246264607981e-08 -5.6460286437241348e-08 -5.0586313483398286e-08  -2.0607749214936223e-07 -2.5446379223028921e-07 -7.7021014617406560e-08  -3.1276005939453382e-07 -5.6852957328856418e-07 -8.8059947960581845e-08  -4.1257642117406812e-07 -9.9042972465314807e-07 -9.1009858334285186e-08  -5.0625499844284296e-07 -1.5137555922910268e-06 -8.9762675844240445e-08  -5.9422819193042816e-07 -2.1318619882398726e-06 -8.6239266308731235e-08  -6.7651817892983527e-07 -2.8380006884984172e-06 -8.1452818666913730e-08  -7.5301124546548702e-07 -3.6254962394314073e-06 -7.5958027988318880e-08  -8.2358784737773392e-07 -4.4877961838789566e-06 -7.0063211633611926e-08  -8.8815798481103074e-07 -5.4184601607292879e-06 -6.3943077753448201e-08  -9.4666212013312562e-07 -6.4111317108668674e-06 -5.7700944649653065e-08  -9.9906364027530955e-07 -7.4595104580053049e-06 -5.1403582208482688e-08  -1.0453405810336042e-06 -8.5573295677204765e-06 -4.5101329489603636e-08  -1.0854756512611673e-06 -9.6983392626794418e-06 -3.8839890952020279e-08  -1.1194352299265061e-06 -1.0876298418413392e-05 -3.2664809670403407e-08  -1.1471142253241371e-06 -1.2084981873282439e-05 -2.6612225577723083e-08  -1.1682218203822794e-06 -1.3318207428190854e-05 -2.0670430509992572e-08  -1.1822288264433818e-06 -1.4569753201266120e-05 -1.4711764875595157e-08  -1.1892299550868771e-06 -1.5832164195998086e-05 -8.5388846163664988e-09  -1.1933974819986800e-06 -1.7090899950889642e-05 -2.5633149212830414e-09  0.0000000000000000e+00 0.0000000000000000e+00 0.0000000000000000e+00  -5.9165286203516741e-10 -4.4581728322875534e-08 -1.1901174573672935e-10  -3.5541601365101636e-10 -2.3778207353093558e-07 3.8895256526663447e-10  -3.7273665812444712e-10 -5.5241069568053585e-07 3.8625482113240881e-10  -3.9250190838768102e-10 -9.7559979258079833e-07 3.4388752984521258e-10  -3.8776981431235979e-10 -1.5000178203742383e-06 3.2143574153646475e-10  -3.7241170355035140e-10 -2.1190603563135605e-06 3.1982551569767902e-10  -3.5748961786333058e-10 -2.8260854812587496e-06 3.3325992641614936e-10  -3.4697011135222928e-10 -3.6144656172469249e-06 3.5630882711776892e-10  -3.4068146803200750e-10 -4.4776607443773602e-06 3.8493327515125452e-10  -3.3724441987023951e-10 -5.4092302935354107e-06 4.1650846393121113e-10  -3.3535510991896985e-10 -6.4028148431486582e-06 4.4949153713966678e-10  -3.3408340683121282e-10 -7.4521116542399300e-06 4.8304590064526833e-10  -3.3286465448797286e-10 -8.5508539932122258e-06 5.1672343774618716e-10  -3.3157504710120611e-10 -9.6927987971510831e-06 5.5017098929770912e-10  -3.3085595566742666e-10 -1.0871728774939823e-05 5.8273833356971200e-10  -3.3180558222412238e-10 -1.2081473947541600e-05 6.1292194205919536e-10  -3.3054735024860468e-10 -1.3315901762763105e-05 6.3873808106689480e-10  -3.0602940422318726e-10 -1.4568501106516437e-05 6.6510942717549113e-10  -2.6763910296803104e-10 -1.5830080953607254e-05 7.1455290613591098e-10  -5.4941501389341646e-10 -1.7082118126918010e-05 6.7548829092805844e-10  0.0000000000000000e+00 0.0000000000000000e+00 0.0000000000000000e+00  9.4595536010998557e-08 -5.6386802061665848e-08 5.0526110463544280e-08  2.0538824351653297e-07 -2.5380267338213025e-07 7.7917734990546651e-08  3.1201236556253703e-07 -5.6826428205340231e-07 8.8841673547859495e-08  4.1179737984057675e-07 -9.9036038647199212e-07 9.1679387149415630e-08  5.0549727859762340e-07 -1.5137543203912972e-06 9.0389435146125723e-08  5.9350026940216884e-07 -2.1318781332597520e-06 8.6868840949833310e-08  6.7581401344940885e-07 -2.8380169781934328e-06 8.2113926657858977e-08  7.5232283936705943e-07 -3.6255083841406979e-06 7.6668099944818941e-08  8.2290886443357601e-07 -4.4878044437082480e-06 7.0832130636618108e-08  8.8748431519114298e-07 -5.4184659283352869e-06 6.4775978489847091e-08  9.4599148199000156e-07 -6.4111362997480182e-06 5.8600198446749269e-08  9.9839502679491501e-07 -7.4595148353173638e-06 5.2370068821190713e-08  1.0446738030491013e-06 -8.5573344863111323e-06 4.6135154389531492e-08  1.0848109946308833e-06 -9.6983456308244380e-06 3.9940674684105990e-08  1.1187732191575322e-06 -1.0876307537672553e-05 3.3831569015987555e-08  1.1464553041712764e-06 -1.2084992782155509e-05 2.7842724937133779e-08  1.1675664098598158e-06 -1.3318202269532221e-05 2.1959876559548810e-08  1.1815937697229301e-06 -1.4569676391288366e-05 1.6054990585022811e-08  1.1886921217729602e-06 -1.5832070596774127e-05 9.9666232913127406e-09  1.1924206198957068e-06 -1.7090905766092555e-05 3.9569308959956102e-09  0.0000000000000000e+00 0.0000000000000000e+00 0.0000000000000000e+00  1.9956373299653710e-07 -9.8223600214335955e-08 9.9198788529942430e-08  4.2489474426044034e-07 -3.0426663869375412e-07 1.5191484572406869e-07  6.3744996754720596e-07 -6.1597041734172989e-07 1.7436310098804790e-07  8.3697822103992508e-07 -1.0345811234054864e-06 1.8090674432950507e-07  1.0249726923293298e-06 -1.5550068776006717e-06 1.7898645524539306e-07  1.2016387468184443e-06 -2.1704146208562801e-06 1.7241112660220223e-07  1.3667763207121280e-06 -2.8738879278954003e-06 1.6322233196359616e-07  1.5201398608992949e-06 -3.6586955858129985e-06 1.5254333042109602e-07  1.6615327622231035e-06 -4.5182789804224839e-06 1.4100492741742690e-07  1.7908185398549088e-06 -5.4462047441892313e-06 1.2897120376312946e-07  1.9079093230755371e-06 -6.4361239694474597e-06 1.1666240877913337e-07  2.0127512464716317e-06 -7.4817411636063047e-06 1.0422385323510643e-07  2.1053121405926253e-06 -8.5767898977040511e-06 9.1766884617554457e-08  2.1855716990023825e-06 -9.7150105029392244e-06 7.9395725553830415e-08  2.2535116242400207e-06 -1.0890124223425601e-05 6.7225530761359758e-08  2.3090979591381629e-06 -1.2095805444967084e-05 5.5386259788253722e-08  2.3522245748091072e-06 -1.3325711843939077e-05 4.3985453728022769e-08  2.3825160718581210e-06 -1.4573889993164201e-05 3.2988157507427168e-08  2.3992560665232962e-06 -1.5836403315829842e-05 2.2146809900050495e-08  2.4068299592235505e-06 -1.7114038281449282e-05 1.2088401115748140e-08  0.0000000000000000e+00 0.0000000000000000e+00 0.0000000000000000e+00  3.3983224661946425e-07 -1.8966901391899160e-07 1.4470048636870318e-07  6.6759180181528888e-07 -3.8995757632463626e-07 2.2114372608006706e-07  9.85058853945549