<?xml version="1.0"?>
<VTKFile type="UnstructuredGrid"  version="0.1"  >
<UnstructuredGrid>
<Piece  NumberOfPoints="147" NumberOfCells="240">
<Points>
<DataArray  type="Float64"  NumberOfComponents="3"  format="ascii">0 0 0  0.05 0 0  0.1 0 0  0.15 0 0  0.2 0 0  0.25 0 0  0.3 0 0  0.35 0 0  0.4 0 0  0.45 0 0  0.5 0 0  0.55 0 0  0.6 0 0  0.65 0 0  0.7 0 0  0.75 0 0  0.8 0 0  0.85 0 0  0.9 0 0  0.95 0 0  1 0 0  0 0.05 0  0.05 0.05 0  0.1 0.05 0  0.15 0.05 0  0.2 0.05 0  0.25 0.05 0  0.3 0.05 0  0.35 0.05 0  0.4 0.05 0  0.45 0.05 0  0.5 0.05 0  0.55 0.05 0  0.6 0.05 0  0.65 0.05 0  0.7 0.05 0  0.75 0.05 0  0.8 0.05 0  0.85 0.05 0  0.9 0.05 0  0.95 0.05 0  1 0.05 0  0 0.09999999999999999 0  0.05 0.09999999999999999 0  0.1 0.09999999999999999 0  0.15 0.09999999999999999 0  0.2 0.09999999999999999 0  0.25 0.09999999999999999 0  0.3 0.09999999999999999 0  0.35 0.09999999999999999 0  0.4 0.09999999999999999 0  0.45 0.09999999999999999 0  0.5 0.09999999999999999 0  0.55 0.09999999999999999 0  0.6 0.09999999999999999 0  0.65 0.09999999999999999 0  0.7 0.09999999999999999 0  0.75 0.09999999999999999 0  0.8 0.09999999999999999 0  0.85 0.09999999999999999 0  0.9 0.09999999999999999 0  0.95 0.09999999999999999 0  1 0.09999999999999999 0  0 0.15 0  0.05 0.15 0  0.1 0.15 0  0.15 0.15 0  0.2 0.15 0  0.25 0.15 0  0.3 0.15 0  0.35 0.15 0  0.4 0.15 0  0.45 0.15 0  0.5 0.15 0  0.55 0.15 0  0.6 0.15 0  0.65 0.15 0  0.7 0.15 0  0.75 0.15 0  0.8 0.15 0  0.85 0.15 0  0.9 0.15 0  0.95 0.15 0  1 0.15 0  0 0.2 0  0.05 0.2 0  0.1 0.2 0  0.15 0.2 0  0.2 0.2 0  0.25 0.2 0  0.3 0.2 0  0.35 0.2 0  0.4 0.2 0  0.45 0.2 0  0.5 0.2 0  0.55 0.2 0  0.6 0.2 0  0.65 0.2 0  0.7 0.2 0  0.75 0.2 0  0.8 0.2 0  0.85 0.2 0  0.9 0.2 0  0.95 0.2 0  1 0.2 0  0 0.25 0  0.05 0.25 0  0.1 0.25 0  0.15 0.25 0  0.2 0.25 0  0.25 0.25 0  0.3 0.25 0  0.35 0.25 0  0.4 0.25 0  0.45 0.25 0  0.5 0.25 0  0.55 0.25 0  0.6 0.25 0  0.65 0.25 0  0.7 0.25 0  0.75 0.25 0  0.8 0.25 0  0.85 0.25 0  0.9 0.25 0  0.95 0.25 0  1 0.25 0  0 0.3 0  0.05 0.3 0  0.1 0.3 0  0.15 0.3 0  0.2 0.3 0  0.25 0.3 0  0.3 0.3 0  0.35 0.3 0  0.4 0.3 0  0.45 0.3 0  0.5 0.3 0  0.55 0.3 0  0.6 0.3 0  0.65 0.3 0  0.7 0.3 0  0.75 0.3 0  0.8 0.3 0  0.85 0.3 0  0.9 0.3 0  0.95 0.3 0  1 0.3 0  </DataArray>
</Points>
<Cells>
<DataArray  type="UInt32"  Name="connectivity"  format="ascii">0 1 22  0 21 22  1 2 23  1 22 23  2 3 24  2 23 24  3 4 25  3 24 25  4 5 26  4 25 26  5 6 27  5 26 27  6 7 28  6 27 28  7 8 29  7 28 29  8 9 30  8 29 30  9 10 31  9 30 31  10 11 32  10 31 32  11 12 33  11 32 33  12 13 34  12 33 34  13 14 35  13 34 35  14 15 36  14 35 36  15 16 37  15 36 37  16 17 38  16 37 38  17 18 39  17 38 39  18 19 40  18 39 40  19 20 41  19 40 41  21 22 43  21 42 43  22 23 44  22 43 44  23 24 45  23 44 45  24 25 46  24 45 46  25 26 47  25 46 47  26 27 48  26 47 48  27 28 49  27 48 49  28 29 50  28 49 50  29 30 51  29 50 51  30 31 52  30 51 52  31 32 53  31 52 53  32 33 54  32 53 54  33 34 55  33 54 55  34 35 56  34 55 56  35 36 57  35 56 57  36 37 58  36 57 58  37 38 59  37 58 59  38 39 60  38 59 60  39 40 61  39 60 61  40 41 62  40 61 62  42 43 64  42 63 64  43 44 65  43 64 65  44 45 66  44 65 66  45 46 67  45 66 67  46 47 68  46 67 68  47 48 69  47 68 69  48 49 70  48 69 70  49 50 71  49 70 71  50 51 72  50 71 72  51 52 73  51 72 73  52 53 74  52 73 74  53 54 75  53 74 75  54 55 76  54 75 76  55 56 77  55 76 77  56 57 78  56 77 78  57 58 79  57 78 79  58 59 80  58 79 80  59 60 81  59 80 81  60 61 82  60 81 82  61 62 83  61 82 83  63 64 85  63 84 85  64 65 86  64 85 86  65 66 87  65 86 87  66 67 88  66 87 88  67 68 89  67 88 89  68 69 90  68 89 90  69 70 91  69 90 91  70 71 92  70 91 92  71 72 93  71 92 93  72 73 94  72 93 94  73 74 95  73 94 95  74 75 96  74 95 96  75 76 97  75 96 97  76 77 98  76 97 98  77 78 99  77 98 99  78 79 100  78 99 100  79 80 101  79 100 101  80 81 102  80 101 102  81 82 103  81 102 103  82 83 104  82 103 104  84 85 106  84 105 106  85 86 107  85 106 107  86 87 108  86 107 108  87 88 109  87 108 109  88 89 110  88 109 110  89 90 111  89 110 111  90 91 112  90 111 112  91 92 113  91 112 113  92 93 114  92 113 114  93 94 115  93 114 115  94 95 116  94 115 116  95 96 117  95 116 117  96 97 118  96 117 118  97 98 119  97 118 119  98 99 120  98 119 120  99 100 121  99 120 121  100 101 122  100 121 122  101 102 123  101 122 123  102 103 124  102 123 124  103 104 125  103 124 125  105 106 127  105 126 127  106 107 128  106 127 128  107 108 129  107 128 129  108 109 130  108 129 130  109 110 131  109 130 131  110 111 132  110 131 132  111 112 133  111 132 133  112 113 134  112 133 134  113 114 135  113 134 135  114 115 136  114 135 136  115 116 137  115 136 137  116 117 138  116 137 138  117 118 139  117 138 139  118 119 140  118 139 140  119 120 141  119 140 141  120 121 142  120 141 142  121 122 143  121 142 143  122 123 144  122 143 144  123 124 145  123 144 145  124 125 146  124 145 146  </DataArray>
<DataArray  type="UInt32"  Name="offsets"  format="ascii">3 6 9 12 15 18 21 24 27 30 33 36 39 42 45 48 51 54 57 60 63 66 69 72 75 78 81 84 87 90 93 96 99 102 105 108 111 114 117 120 123 126 129 132 135 138 141 144 147 150 153 156 159 162 165 168 171 174 177 180 183 186 189 192 195 198 201 204 207 210 213 216 219 222 225 228 231 234 237 240 243 246 249 252 255 258 261 264 267 270 273 276 279 282 285 288 291 294 297 300 303 306 309 312 315 318 321 324 327 330 333 336 339 342 345 348 351 354 357 360 363 366 369 372 375 378 381 384 387 390 393 396 399 402 405 408 411 414 417 420 423 426 429 432 435 438 441 444 447 450 453 456 459 462 465 468 471 474 477 480 483 486 489 492 495 498 501 504 507 510 513 516 519 522 525 528 531 534 537 540 543 546 549 552 555 558 561 564 567 570 573 576 579 582 585 588 591 594 597 600 603 606 609 612 615 618 621 624 627 630 633 636 639 642 645 648 651 654 657 660 663 666 669 672 675 678 681 684 687 690 693 696 699 702 705 708 711 714 717 720 </DataArray>
<DataArray  type="UInt8"  Name="types"  format="ascii">5 5 5 5 5 5 5 5 5 5 5 5 5 5 5 5 5 5 5 5 5 5 5 5 5 5 5 5 5 5 5 5 5 5 5 5 5 5 5 5 5 5 5 5 5 5 5 5 5 5 5 5 5 5 5 5 5 5 5 5 5 5 5 5 5 5 5 5 5 5 5 5 5 5 5 5 5 5 5 5 5 5 5 5 5 5 5 5 5 5 5 5 5 5 5 5 5 5 5 5 5 5 5 5 5 5 5 5 5 5 5 5 5 5 5 5 5 5 5 5 5 5 5 5 5 5 5 5 5 5 5 5 5 5 5 5 5 5 5 5 5 5 5 5 5 5 5 5 5 5 5 5 5 5 5 5 5 5 5 5 5 5 5 5 5 5 5 5 5 5 5 5 5 5 5 5 5 5 5 5 5 5 5 5 5 5 5 5 5 5 5 5 5 5 5 5 5 5 5 5 5 5 5 5 5 5 5 5 5 5 5 5 5 5 5 5 5 5 5 5 5 5 5 5 5 5 5 5 5 5 5 5 5 5 5 5 5 5 5 5 </DataArray>
</Cells>
<CellData  Scalars="f_76"> 
<DataArray  type="Float64"  Name="f_76"  format="ascii">3.3783070713149710e+05   2.4431163878302870e+05   3.1071313065449713e+05   2.8003938622907299e+05   2.9545435265424493e+05   2.6583194759052800e+05   2.7948649171488039e+05   2.5074524055150733e+05   2.6280165051005810e+05   2.3588544880981348e+05   2.4583231748169722e+05   2.2103741288050122e+05   2.2877985011966492e+05   2.0617838308337366e+05   2.1171275011967274e+05   1.9132493750231780e+05   1.9465033358736514e+05   1.7648874212315690e+05   1.7759782846283392e+05   1.6167734900148973e+05   1.6055801465049642e+05   1.4689846096051016e+05   1.4353465407784417e+05   1.3216261943854985e+05   1.2653406597262852e+05   1.1748546136535108e+05   1.0956788922359064e+05   1.0289041805552070e+05   9.2660896885532347e+04   8.8411271723275830e+04   7.5871699307713861e+04   7.4089773761890829e+04   5.9337454469252174e+04   5.9955479482021845e+04   4.3384899959513736e+04   4.6030600784233648e+04   2.9554236749109226e+04   3.3250810233333534e+04   2.9159977651545458e+04   2.9508829329101947e+04   1.7795839612173103e+05   1.2236236069726656e+05   1.9847845439867489e+05   1.5859654536884872e+05   1.9137385515477450e+05   1.5958309659183543e+05   1.8025235524456980e+05   1.5160171533012894e+05   1.6940887811250251e+05   1.4282641156981891e+05   1.5888936107957715e+05   1.3444546656721036e+05   1.4853446726616615e+05   1.2635603833935560e+05   1.3827454675705006e+05   1.1843142179815451e+05   1.2809560214952930e+05   1.1062767090460991e+05   1.1800794765912359e+05   1.0294659668959719e+05   1.0803421619187504e+05   9.5410621461625604e+04   9.8207481294327619e+04   8.8054408521696547e+04   8.8573145067208301e+04   8.0924019290404292e+04   7.9189851366508825e+04   7.4077299938882396e+04   7.0121393375088432e+04   6.7580226950434808e+04   6.1409866192264271e+04   6.1497057401462749e+04   5.3079540913783792e+04   5.5908631963234846e+04   4.5591248092020156e+04   5.1136451725592051e+04   4.1643018724876347e+04   4.8244558042874247e+04   4.4310236941738214e+04   4.6736132432453785e+04   7.2693838668598852e+04   3.4867747021198120e+04   9.3399933894376882e+04   6.4034561830404629e+04   9.5344463000739182e+04   7.2475532031995070e+04   9.1725493825410813e+04   7.1743500443924175e+04   8.7724119390967433e+04   6.9696730300959010e+04   8.4118508182071411e+04   6.7972501226697583e+04   8.0795946905581499e+04   6.6557807882779249e+04   7.7642297638369797e+04   6.5302835613129580e+04   7.4618506840393893e+04   6.4136435839927100e+04   7.1723508769785738e+04   6.3038002116544703e+04   6.8970568677405710e+04   6.2006097020698333e+04   6.6378627730591325e+04   6.1045221859787795e+04   6.3970330757592696e+04   6.0162509535136720e+04   6.1774084751157738e+04   5.9370772412211772e+04   5.9835411262386602e+04   5.8702979181500647e+04   5.8256326654064564e+04   5.8252895340383482e+04   5.7283615029167056e+04   5.8243700535917502e+04   5.7260241385540889e+04   5.8948133424719832e+04   5.6989073426809176e+04   5.9506957325523443e+04   4.7529955001744318e+04   5.3483682364453205e+04   4.5496840885648904e+04   6.1742855975029539e+04   6.7953350842961459e+04   8.8776216718691270e+04   7.2099201060149033e+04   9.5307121395535331e+04   7.0702504141415950e+04   9.2630363119938702e+04   6.8794372938151297e+04   8.8599899575290168e+04   6.7210568816299361e+04   8.4873797836175756e+04   6.5869059690844661e+04   8.1475151152500956e+04   6.4656107856115501e+04   7.8275467867075116e+04   6.3523735316415208e+04   7.5216201312771023e+04   6.2459909798134802e+04   7.2287282699163989e+04   6.1465655732924846e+04   6.9498681074796885e+04   6.0546138625601525e+04   6.6868102791571786e+04   5.9709096902100035e+04   6.4417227947503729e+04   5.8969683773828729e+04   6.2171631889178316e+04   5.8370275000436261e+04   6.0166003717035426e+04   5.8035619481245594e+04   5.8468050079956767e+04   5.8258242994601402e+04   5.7253496910031208e+04   5.9296740272180650e+04   5.6894712289878174e+04   5.9303933770900810e+04   5.7218614357944563e+04   4.8162305464822159e+04   5.2897660426421804e+04   1.3908663463406946e+05   1.5995043638853903e+05   1.5968125178172893e+05   1.9572853154087756e+05   1.5674119585484965e+05   1.9405893005893618e+05   1.4829091618059002e+05   1.8363256564778523e+05   1.3963009122795638e+05   1.7263208758914136e+05   1.3135069126865276e+05   1.6198631064972459e+05   1.2331676029405624e+05   1.5157048500283007e+05   1.1542823017977360e+05   1.4127389100162312e+05   1.0765847241227273e+05   1.3106094655624437e+05   1.0001723942362936e+05   1.2093340621650594e+05   9.2531291531185067e+04   1.1090960517443641e+05   8.5239183912630426e+04   1.0101876995607857e+05   7.8191363099835595e+04   9.1301853401263637e+04   7.1449526669560335e+04   8.1813534647006585e+04   6.5079040792343447e+04   7.2618684289243247e+04   5.9134911410401881e+04   6.3770981185734388e+04   5.3713385971336538e+04   5.5279504421832709e+04   4.9418782844032452e+04   4.7301404121859501e+04   4.8128707955052887e+04   4.1721414092364474e+04   4.7653172036783180e+04   4.3720945425141879e+04   2.6811085678949609e+05   3.0867613178018219e+05   2.7478180840660486e+05   3.1684112142358115e+05   2.6059959880755507e+05   3.0102705419973854e+05   2.4551568588909955e+05   2.8465068609169283e+05   2.3061220856925525e+05   2.6797343013928825e+05   2.1574803935128334e+05   2.5105554830391210e+05   2.0089108666238276e+05   2.3403225780210528e+05   1.8604507088073925e+05   2.1697674080795713e+05   1.7121676773726678e+05   1.9991636776691632e+05   1.5641323953083981e+05   1.8286057256035088e+05   1.4164313029613023e+05   1.6581372362647424e+05   1.2691834501589765e+05   1.4877958660514897e+05   1.1225636079999435e+05   1.3176315036178022e+05   9.7683628813610369e+04   1.1477290581742536e+05   8.3239526777557272e+04   9.7827448533326111e+04   6.8975323259168188e+04   8.0976323746328024e+04   5.4929998584420973e+04   6.4359395945257224e+04   4.1138207609227160e+04   4.8349083285909852e+04   2.9104640369950779e+04   3.3804828579963571e+04   3.5418022596405091e+04   2.3483895591006600e+04   </DataArray> 
</CellData> 
</Piece>
</UnstructuredGrid>
</VTKFile>