<?xml version="1.0"?>
<VTKFile type="UnstructuredGrid"  version="0.1"  >
<UnstructuredGrid>
<Piece  NumberOfPoints="1470" NumberOfCells="6480">
<Points>
<DataArray  type="Float64"  NumberOfComponents="3"  format="ascii">0 0 0  0.05 0 0  0.1 0 0  0.15 0 0  0.2 0 0  0.25 0 0  0.3 0 0  0.35 0 0  0.4 0 0  0.45 0 0  0.5 0 0  0.55 0 0  0.6 0 0  0.65 0 0  0.7 0 0  0.75 0 0  0.8 0 0  0.85 0 0  0.9 0 0  0.95 0 0  1 0 0  0 0.05 0  0.05 0.05 0  0.1 0.05 0  0.15 0.05 0  0.2 0.05 0  0.25 0.05 0  0.3 0.05 0  0.35 0.05 0  0.4 0.05 0  0.45 0.05 0  0.5 0.05 0  0.55 0.05 0  0.6 0.05 0  0.65 0.05 0  0.7 0.05 0  0.75 0.05 0  0.8 0.05 0  0.85 0.05 0  0.9 0.05 0  0.95 0.05 0  1 0.05 0  0 0.09999999999999999 0  0.05 0.09999999999999999 0  0.1 0.09999999999999999 0  0.15 0.09999999999999999 0  0.2 0.09999999999999999 0  0.25 0.09999999999999999 0  0.3 0.09999999999999999 0  0.35 0.09999999999999999 0  0.4 0.09999999999999999 0  0.45 0.09999999999999999 0  0.5 0.09999999999999999 0  0.55 0.09999999999999999 0  0.6 0.09999999999999999 0  0.65 0.09999999999999999 0  0.7 0.09999999999999999 0  0.75 0.09999999999999999 0  0.8 0.09999999999999999 0  0.85 0.09999999999999999 0  0.9 0.09999999999999999 0  0.95 0.09999999999999999 0  1 0.09999999999999999 0  0 0.15 0  0.05 0.15 0  0.1 0.15 0  0.15 0.15 0  0.2 0.15 0  0.25 0.15 0  0.3 0.15 0  0.35 0.15 0  0.4 0.15 0  0.45 0.15 0  0.5 0.15 0  0.55 0.15 0  0.6 0.15 0  0.65 0.15 0  0.7 0.15 0  0.75 0.15 0  0.8 0.15 0  0.85 0.15 0  0.9 0.15 0  0.95 0.15 0  1 0.15 0  0 0.2 0  0.05 0.2 0  0.1 0.2 0  0.15 0.2 0  0.2 0.2 0  0.25 0.2 0  0.3 0.2 0  0.35 0.2 0  0.4 0.2 0  0.45 0.2 0  0.5 0.2 0  0.55 0.2 0  0.6 0.2 0  0.65 0.2 0  0.7 0.2 0  0.75 0.2 0  0.8 0.2 0  0.85 0.2 0  0.9 0.2 0  0.95 0.2 0  1 0.2 0  0 0.25 0  0.05 0.25 0  0.1 0.25 0  0.15 0.25 0  0.2 0.25 0  0.25 0.25 0  0.3 0.25 0  0.35 0.25 0  0.4 0.25 0  0.45 0.25 0  0.5 0.25 0  0.55 0.25 0  0.6 0.25 0  0.65 0.25 0  0.7 0.25 0  0.75 0.25 0  0.8 0.25 0  0.85 0.25 0  0.9 0.25 0  0.95 0.25 0  1 0.25 0  0 0.3 0  0.05 0.3 0  0.1 0.3 0  0.15 0.3 0  0.2 0.3 0  0.25 0.3 0  0.3 0.3 0  0.35 0.3 0  0.4 0.3 0  0.45 0.3 0  0.5 0.3 0  0.55 0.3 0  0.6 0.3 0  0.65 0.3 0  0.7 0.3 0  0.75 0.3 0  0.8 0.3 0  0.85 0.3 0  0.9 0.3 0  0.95 0.3 0  1 0.3 0  0 0 0.05  0.05 0 0.05  0.1 0 0.05  0.15 0 0.05  0.2 0 0.05  0.25 0 0.05  0.3 0 0.05  0.35 0 0.05  0.4 0 0.05  0.45 0 0.05  0.5 0 0.05  0.55 0 0.05  0.6 0 0.05  0.65 0 0.05  0.7 0 0.05  0.75 0 0.05  0.8 0 0.05  0.85 0 0.05  0.9 0 0.05  0.95 0 0.05  1 0 0.05  0 0.05 0.05  0.05 0.05 0.05  0.1 0.05 0.05  0.15 0.05 0.05  0.2 0.05 0.05  0.25 0.05 0.05  0.3 0.05 0.05  0.35 0.05 0.05  0.4 0.05 0.05  0.45 0.05 0.05  0.5 0.05 0.05  0.55 0.05 0.05  0.6 0.05 0.05  0.65 0.05 0.05  0.7 0.05 0.05  0.75 0.05 0.05  0.8 0.05 0.05  0.85 0.05 0.05  0.9 0.05 0.05  0.95 0.05 0.05  1 0.05 0.05  0 0.09999999999999999 0.05  0.05 0.09999999999999999 0.05  0.1 0.09999999999999999 0.05  0.15 0.09999999999999999 0.05  0.2 0.09999999999999999 0.05  0.25 0.09999999999999999 0.05  0.3 0.09999999999999999 0.05  0.35 0.09999999999999999 0.05  0.4 0.09999999999999999 0.05  0.45 0.09999999999999999 0.05  0.5 0.09999999999999999 0.05  0.55 0.09999999999999999 0.05  0.6 0.09999999999999999 0.05  0.65 0.09999999999999999 0.05  0.7 0.09999999999999999 0.05  0.75 0.09999999999999999 0.05  0.8 0.09999999999999999 0.05  0.85 0.09999999999999999 0.05  0.9 0.09999999999999999 0.05  0.95 0.09999999999999999 0.05  1 0.09999999999999999 0.05  0 0.15 0.05  0.05 0.15 0.05  0.1 0.15 0.05  0.15 0.15 0.05  0.2 0.15 0.05  0.25 0.15 0.05  0.3 0.15 0.05  0.35 0.15 0.05  0.4 0.15 0.05  0.45 0.15 0.05  0.5 0.15 0.05  0.55 0.15 0.05  0.6 0.15 0.05  0.65 0.15 0.05  0.7 0.15 0.05  0.75 0.15 0.05  0.8 0.15 0.05  0.85 0.15 0.05  0.9 0.15 0.05  0.95 0.15 0.05  1 0.15 0.05  0 0.2 0.05  0.05 0.2 0.05  0.1 0.2 0.05  0.15 0.2 0.05  0.2 0.2 0.05  0.25 0.2 0.05  0.3 0.2 0.05  0.35 0.2 0.05  0.4 0.2 0.05  0.45 0.2 0.05  0.5 0.2 0.05  0.55 0.2 0.05  0.6 0.2 0.05  0.65 0.2 0.05  0.7 0.2 0.05  0.75 0.2 0.05  0.8 0.2 0.05  0.85 0.2 0.05  0.9 0.2 0.05  0.95 0.2 0.05  1 0.2 0.05  0 0.25 0.05  0.05 0.25 0.05  0.1 0.25 0.05  0.15 0.25 0.05  0.2 0.25 0.05  0.25 0.25 0.05  0.3 0.25 0.05  0.35 0.25 0.05  0.4 0.25 0.05  0.45 0.25 0.05  0.5 0.25 0.05  0.55 0.25 0.05  0.6 0.25 0.05  0.65 0.25 0.05  0.7 0.25 0.05  0.75 0.25 0.05  0.8 0.25 0.05  0.85 0.25 0.05  0.9 0.25 0.05  0.95 0.25 0.05  1 0.25 0.05  0 0.3 0.05  0.05 0.3 0.05  0.1 0.3 0.05  0.15 0.3 0.05  0.2 0.3 0.05  0.25 0.3 0.05  0.3 0.3 0.05  0.35 0.3 0.05  0.4 0.3 0.05  0.45 0.3 0.05  0.5 0.3 0.05  0.55 0.3 0.05  0.6 0.3 0.05  0.65 0.3 0.05  0.7 0.3 0.05  0.75 0.3 0.05  0.8 0.3 0.05  0.85 0.3 0.05  0.9 0.3 0.05  0.95 0.3 0.05  1 0.3 0.05  0 0 0.1  0.05 0 0.1  0.1 0 0.1  0.15 0 0.1  0.2 0 0.1  0.25 0 0.1  0.3 0 0.1  0.35 0 0.1  0.4 0 0.1  0.45 0 0.1  0.5 0 0.1  0.55 0 0.1  0.6 0 0.1  0.65 0 0.1  0.7 0 0.1  0.75 0 0.1  0.8 0 0.1  0.85 0 0.1  0.9 0 0.1  0.95 0 0.1  1 0 0.1  0 0.05 0.1  0.05 0.05 0.1  0.1 0.05 0.1  0.15 0.05 0.1  0.2 0.05 0.1  0.25 0.05 0.1  0.3 0.05 0.1  0.35 0.05 0.1  0.4 0.05 0.1  0.45 0.05 0.1  0.5 0.05 0.1  0.55 0.05 0.1  0.6 0.05 0.1  0.65 0.05 0.1  0.7 0.05 0.1  0.75 0.05 0.1  0.8 0.05 0.1  0.85 0.05 0.1  0.9 0.05 0.1  0.95 0.05 0.1  1 0.05 0.1  0 0.09999999999999999 0.1  0.05 0.09999999999999999 0.1  0.1 0.09999999999999999 0.1  0.15 0.09999999999999999 0.1  0.2 0.09999999999999999 0.1  0.25 0.09999999999999999 0.1  0.3 0.09999999999999999 0.1  0.35 0.09999999999999999 0.1  0.4 0.09999999999999999 0.1  0.45 0.09999999999999999 0.1  0.5 0.09999999999999999 0.1  0.55 0.09999999999999999 0.1  0.6 0.09999999999999999 0.1  0.65 0.09999999999999999 0.1  0.7 0.09999999999999999 0.1  0.75 0.09999999999999999 0.1  0.8 0.09999999999999999 0.1  0.85 0.09999999999999999 0.1  0.9 0.09999999999999999 0.1  0.95 0.09999999999999999 0.1  1 0.09999999999999999 0.1  0 0.15 0.1  0.05 0.15 0.1  0.1 0.15 0.1  0.15 0.15 0.1  0.2 0.15 0.1  0.25 0.15 0.1  0.3 0.15 0.1  0.35 0.15 0.1  0.4 0.15 0.1  0.45 0.15 0.1  0.5 0.15 0.1  0.55 0.15 0.1  0.6 0.15 0.1  0.65 0.15 0.1  0.7 0.15 0.1  0.75 0.15 0.1  0.8 0.15 0.1  0.85 0.15 0.1  0.9 0.15 0.1  0.95 0.15 0.1  1 0.15 0.1  0 0.2 0.1  0.05 0.2 0.1  0.1 0.2 0.1  0.15 0.2 0.1  0.2 0.2 0.1  0.25 0.2 0.1  0.3 0.2 0.1  0.35 0.2 0.1  0.4 0.2 0.1  0.45 0.2 0.1  0.5 0.2 0.1  0.55 0.2 0.1  0.6 0.2 0.1  0.65 0.2 0.1  0.7 0.2 0.1  0.75 0.2 0.1  0.8 0.2 0.1  0.85 0.2 0.1  0.9 0.2 0.1  0.95 0.2 0.1  1 0.2 0.1  0 0.25 0.1  0.05 0.25 0.1  0.1 0.25 0.1  0.15 0.25 0.1  0.2 0.25 0.1  0.25 0.25 0.1  0.3 0.25 0.1  0.35 0.25 0.1  0.4 0.25 0.1  0.45 0.25 0.1  0.5 0.25 0.1  0.55 0.25 0.1  0.6 0.25 0.1  0.65 0.25 0.1  0.7 0.25 0.1  0.75 0.25 0.1  0.8 0.25 0.1  0.85 0.25 0.1  0.9 0.25 0.1  0.95 0.25 0.1  1 0.25 0.1  0 0.3 0.1  0.05 0.3 0.1  0.1 0.3 0.1  0.15 0.3 0.1  0.2 0.3 0.1  0.25 0.3 0.1  0.3 0.3 0.1  0.35 0.3 0.1  0.4 0.3 0.1  0.45 0.3 0.1  0.5 0.3 0.1  0.55 0.3 0.1  0.6 0.3 0.1  0.65 0.3 0.1  0.7 0.3 0.1  0.75 0.3 0.1  0.8 0.3 0.1  0.85 0.3 0.1  0.9 0.3 0.1  0.95 0.3 0.1  1 0.3 0.1  0 0 0.15  0.05 0 0.15  0.1 0 0.15  0.15 0 0.15  0.2 0 0.15  0.25 0 0.15  0.3 0 0.15  0.35 0 0.15  0.4 0 0.15  0.45 0 0.15  0.5 0 0.15  0.55 0 0.15  0.6 0 0.15  0.65 0 0.15  0.7 0 0.15  0.75 0 0.15  0.8 0 0.15  0.85 0 0.15  0.9 0 0.15  0.95 0 0.15  1 0 0.15  0 0.05 0.15  0.05 0.05 0.15  0.1 0.05 0.15  0.15 0.05 0.15  0.2 0.05 0.15  0.25 0.05 0.15  0.3 0.05 0.15  0.35 0.05 0.15  0.4 0.05 0.15  0.45 0.05 0.15  0.5 0.05 0.15  0.55 0.05 0.15  0.6 0.05 0.15  0.65 0.05 0.15  0.7 0.05 0.15  0.75 0.05 0.15  0.8 0.05 0.15  0.85 0.05 0.15  0.9 0.05 0.15  0.95 0.05 0.15  1 0.05 0.15  0 0.09999999999999999 0.15  0.05 0.09999999999999999 0.15  0.1 0.09999999999999999 0.15  0.15 0.09999999999999999 0.15  0.2 0.09999999999999999 0.15  0.25 0.09999999999999999 0.15  0.3 0.09999999999999999 0.15  0.35 0.09999999999999999 0.15  0.4 0.09999999999999999 0.15  0.45 0.09999999999999999 0.15  0.5 0.09999999999999999 0.15  0.55 0.09999999999999999 0.15  0.6 0.09999999999999999 0.15  0.65 0.09999999999999999 0.15  0.7 0.09999999999999999 0.15  0.75 0.09999999999999999 0.15  0.8 0.09999999999999999 0.15  0.85 0.09999999999999999 0.15  0.9 0.09999999999999999 0.15  0.95 0.09999999999999999 0.15  1 0.09999999999999999 0.15  0 0.15 0.15  0.05 0.15 0.15  0.1 0.15 0.15  0.15 0.15 0.15  0.2 0.15 0.15  0.25 0.15 0.15  0.3 0.15 0.15  0.35 0.15 0.15  0.4 0.15 0.15  0.45 0.15 0.15  0.5 0.15 0.15  0.55 0.15 0.15  0.6 0.15 0.15  0.65 0.15 0.15  0.7 0.15 0.15  0.75 0.15 0.15  0.8 0.15 0.15  0.85 0.15 0.15  0.9 0.15 0.15  0.95 0.15 0.15  1 0.15 0.15  0 0.2 0.15  0.05 0.2 0.15  0.1 0.2 0.15  0.15 0.2 0.15  0.2 0.2 0.15  0.25 0.2 0.15  0.3 0.2 0.15  0.35 0.2 0.15  0.4 0.2 0.15  0.45 0.2 0.15  0.5 0.2 0.15  0.55 0.2 0.15  0.6 0.2 0.15  0.65 0.2 0.15  0.7 0.2 0.15  0.75 0.2 0.15  0.8 0.2 0.15  0.85 0.2 0.15  0.9 0.2 0.15  0.95 0.2 0.15  1 0.2 0.15  0 0.25 0.15  0.05 0.25 0.15  0.1 0.25 0.15  0.15 0.25 0.15  0.2 0.25 0.15  0.25 0.25 0.15  0.3 0.25 0.15  0.35 0.25 0.15  0.4 0.25 0.15  0.45 0.25 0.15  0.5 0.25 0.15  0.55 0.25 0.15  0.6 0.25 0.15  0.65 0.25 0.15  0.7 0.25 0.15  0.75 0.25 0.15  0.8 0.25 0.15  0.85 0.25 0.15  0.9 0.25 0.15  0.95 0.25 0.15  1 0.25 0.15  0 0.3 0.15  0.05 0.3 0.15  0.1 0.3 0.15  0.15 0.3 0.15  0.2 0.3 0.15  0.25 0.3 0.15  0.3 0.3 0.15  0.35 0.3 0.15  0.4 0.3 0.15  0.45 0.3 0.15  0.5 0.3 0.15  0.55 0.3 0.15  0.6 0.3 0.15  0.65 0.3 0.15  0.7 0.3 0.15  0.75 0.3 0.15  0.8 0.3 0.15  0.85 0.3 0.15  0.9 0.3 0.15  0.95 0.3 0.15  1 0.3 0.15  0 0 0.2  0.05 0 0.2  0.1 0 0.2  0.15 0 0.2  0.2 0 0.2  0.25 0 0.2  0.3 0 0.2  0.35 0 0.2  0.4 0 0.2  0.45 0 0.2  0.5 0 0.2  0.55 0 0.2  0.6 0 0.2  0.65 0 0.2  0.7 0 0.2  0.75 0 0.2  0.8 0 0.2  0.85 0 0.2  0.9 0 0.2  0.95 0 0.2  1 0 0.2  0 0.05 0.2  0.05 0.05 0.2  0.1 0.05 0.2  0.15 0.05 0.2  0.2 0.05 0.2  0.25 0.05 0.2  0.3 0.05 0.2  0.35 0.05 0.2  0.4 0.05 0.2  0.45 0.05 0.2  0.5 0.05 0.2  0.55 0.05 0.2  0.6 0.05 0.2  0.65 0.05 0.2  0.7 0.05 0.2  0.75 0.05 0.2  0.8 0.05 0.2  0.85 0.05 0.2  0.9 0.05 0.2  0.95 0.05 0.2  1 0.05 0.2  0 0
[...]
<CellData  Scalars="f_35"> 
<DataArray  type="Float64"  Name="f_35"  format="ascii">1.2042299344776035e+06   1.3243980794914260e+06   1.3081855076791549e+06   1.1364428402651874e+06   9.4101454143279849e+05   8.6705931446441484e+05   1.0465555486620858e+06   1.1817080179304078e+06   1.2122175446326127e+06   9.6529902807319467e+05   1.1294250649686893e+06   1.0152421720028067e+06   1.0011641734518231e+06   1.1264770454610027e+06   1.1545137611653456e+06   9.0736504462798196e+05   1.0601110707827513e+06   9.4356642872695252e+05   9.6233098269188381e+05   1.0739897849977433e+06   1.0978276067060917e+06   8.7167943654804002e+05   1.0055930386239290e+06   8.9559322972915357e+05   9.1744061558571004e+05   1.0172285170616412e+06   1.0385273557961368e+06   8.3444740697067347e+05   9.5341493470712332e+05   8.5244038743619563e+05   8.6688983626757085e+05   9.5674696193642658e+05   9.7669130168838578e+05   7.9213264274499402e+05   8.9940499792405509e+05   8.0730925996433443e+05   8.1238897308636981e+05   8.9365042286645819e+05   9.1289105456764693e+05   7.4554397639981902e+05   8.4315957402785658e+05   7.5929393111906818e+05   7.5532545625048701e+05   8.2881326543719345e+05   8.4769240273871669e+05   6.9599879021555407e+05   7.8515738438214711e+05   7.0896118992007838e+05   6.9666949256850942e+05   7.6286172921607527e+05   7.8155416114615230e+05   6.4457435727953410e+05   7.2594514459402219e+05   6.5704611635786097e+05   6.3707150165330642e+05   6.9622650934565684e+05   7.1481867796127289e+05   5.9203994448007736e+05   6.6596326263670402e+05   6.0415248510375328e+05   5.7696132367467310e+05   6.2919336945334915e+05   6.4772631931878522e+05   5.3892435634850815e+05   6.0553225691131456e+05   5.5072324351429823e+05   5.1662592731474480e+05   5.6194542704594508e+05   5.8043727987765311e+05   4.8559606360339868e+05   5.4487699617755867e+05   4.9707655175475858e+05   4.5626601004798256e+05   4.9459551637024642e+05   5.1305288059601729e+05   4.3232919111249939e+05   4.8415672239028313e+05   4.4345095819693856e+05   3.9603609925008885e+05   4.2721298666289047e+05   4.4563482870470779e+05   3.7935036221383576e+05   4.2349303031888214e+05   3.9004413964847120e+05   3.3607178503426188e+05   3.5986761358260940e+05   3.7823532503057277e+05   3.2685708222709660e+05   3.6299908450331667e+05   3.3703797028877534e+05   2.7649054453868413e+05   2.9276051057766116e+05   3.1098637123393803e+05   2.7496516521246237e+05   3.0282152357653214e+05   2.8458948048376187e+05   2.1729612230269812e+05   2.2659144848645516e+05   2.4436749509318025e+05   2.2348684470309337e+05   2.4319902280930956e+05   2.3273019997193821e+05   1.5841288488684970e+05   1.6327812476236455e+05   1.7985980478752314e+05   1.7181453749791978e+05   1.8452423518064673e+05   1.8124705989958768e+05   1.0541492070887804e+05   1.0729353150291248e+05   1.2164632669391693e+05   1.2357150609169522e+05   1.2832129481890802e+05   1.3185239341902654e+05   1.1868427755298102e+05   9.5173155327668836e+04   8.8052051118378076e+04   1.1286978585968912e+05   9.1174355556500872e+04   1.0795823178280306e+05   6.7425832747711323e+05   7.9835618192225532e+05   7.0469952905561170e+05   6.1844007740673667e+05   5.1034968382135377e+05   4.6041994531948090e+05   6.3072886680520361e+05   7.6077231334996701e+05   7.8832943634844443e+05   5.2982582423487655e+05   6.6588498976040201e+05   5.5310667354608222e+05   6.0453969919084909e+05   7.1690504334416427e+05   7.3866459087331360e+05   5.1241214727975638e+05   6.4807194038415642e+05   5.3409570473730389e+05   5.8292478124640172e+05   6.8277951977467898e+05   6.9802856028380280e+05   4.9634678404025635e+05   6.1230421289737464e+05   5.1012246425840707e+05   5.6191464919999195e+05   6.5120052904993098e+05   6.6347944851038908e+05   4.8190984483204549e+05   5.8235490355410962e+05   4.9039854561100790e+05   5.3817866043118888e+05   6.1798605402162788e+05   6.2887706966494222e+05   4.6582540867221751e+05   5.5396552837605157e+05   4.7139485552867188e+05   5.1134079861120792e+05   5.8244426610145264e+05   5.9259835087717476e+05   4.4687900886175007e+05   5.2460415673587762e+05   4.5083604144391103e+05   4.8213053106949897e+05   5.4503619538343104e+05   5.5472201793034037e+05   4.2543930501777813e+05   4.9382896355255553e+05   4.2840848478892021e+05   4.5142150458044402e+05   5.0641354227991734e+05   5.1573208054799144e+05   4.0232062312406296e+05   4.6195609281387529e+05   4.0457667266535247e+05   4.1994405836562341e+05   4.6714319980070525e+05   4.7611476591294096e+05   3.7829372147687495e+05   4.2944936940270028e+05   3.7994149808349402e+05   3.8825793016762409e+05   4.2767037558890856e+05   4.3627092837230145e+05   3.5397054913774028e+05   3.9673231634880323e+05   3.5503226404014003e+05   3.5679742417007004e+05   3.8835062447746901e+05   3.9652633262385183e+05   3.2982069888813031e+05   3.6416166714556864e+05   3.3027802998897544e+05   3.2592038150782930e+05   3.4949181477570412e+05   3.5716541475228808e+05   3.0621369003301789e+05   3.3204950839952932e+05   3.0603163434851047e+05   2.9593094057335146e+05   3.1137918746595120e+05   3.1845967436754506e+05   2.8344656814379874e+05   3.0068942681245017e+05   2.8259521181994630e+05   2.6704445427576138e+05   2.7424682836335764e+05   2.8066331059992890e+05   2.6173604978256780e+05   2.7035963559289917e+05   2.6022274095204432e+05   2.3927761208072855e+05   2.3813688180681359e+05   2.4392987216605089e+05   2.4117937026059680e+05   2.4127457470439424e+05   2.3909097770479886e+05   2.1252142720800469e+05   2.0278297181461341e+05   2.0818838857762614e+05   2.2184742217976015e+05   2.1353156037036347e+05   2.1932673344719841e+05   1.8812999093661099e+05   1.6919489431595782e+05   1.7386063364964118e+05   2.0457261822680230e+05   1.8760322065005879e+05   2.0152717652683012e+05   1.7195457758845127e+05   1.4812111927928103e+05   1.4671674676104961e+05   1.9118165134643335e+05   1.6680715670591543e+05   1.8780626825783827e+05   1.5917615221898130e+05   1.5982977609674833e+05   1.4369654257108789e+05   1.6963608413943942e+05   1.5651760946475802e+05   1.7470238410872238e+05   2.4279888637264742e+05   3.3718901785626245e+05   2.9874405080908508e+05   2.0542246732025730e+05   1.8565015982635762e+05   1.5397266767146625e+05   2.2152049912665223e+05   3.3878371396218799e+05   3.4802119818752492e+05   1.2513988636308569e+05   2.3886357851812828e+05   1.3968928403935969e+05   2.3809419664269991e+05   3.3341813494443451e+05   3.4469813109431911e+05   1.5753661612097043e+05   2.6082689331249375e+05   1.7106265288523483e+05   2.5101344897543010e+05   3.2843248215878208e+05   3.3525944530752226e+05   1.8568449147032233e+05   2.6066343866937034e+05   1.8923840733884022e+05   2.6152736822824454e+05   3.2515483092064754e+05   3.2832380587452149e+05   2.0734907803612252e+05   2.6130691119746302e+05   2.0476214208333436e+05   2.6824680910685490e+05   3.2083021255123301e+05   3.2186257633977174e+05   2.2312148537585998e+05   2.6248788568525692e+05   2.1749735683373798e+05   2.7095608646500600e+05   3.1432886431729450e+05   3.1411771074589959e+05   2.3340108990198848e+05   2.6224214389746403e+05   2.2636695268346777e+05   2.7047008524159796e+05   3.0585001904467354e+05   3.0481879799582419e+05   2.3936068054738347e+05   2.6008263274192379e+05   2.3166939841126872e+05   2.6780589861614170e+05   2.9601724773575395e+05   2.9435115940786985e+05   2.4230126439331225e+05   2.5634945230610695e+05   2.3428734690736575e+05   2.6380805548724654e+05   2.8544592120038538e+05   2.8322076585748373e+05   2.4327303990639886e+05   2.5157391566207356e+05   2.3508809697515078e+05   2.5907810192965550e+05   2.7462187746587675e+05   2.7186618480885791e+05   2.4300888514700407e+05   2.4622289099081754e+05   2.3473041916391740e+05   2.5400995698408203e+05   2.6389830441124964e+05   2.6062460809912297e+05   2.4197727049672720e+05   2.4064149845779076e+05   2.3365756132735580e+05   2.4884475146681673e+05   2.5352154580227559e+05   2.4974571667494092e+05   2.4045631712931304e+05   2.3506488686147565e+05   2.3214390068037953e+05   2.4372969077755403e+05   2.4365909221479282e+05   2.3941518410897828e+05   2.3860880392112423e+05   2.2964986795509065e+05   2.3035262674550168e+05   2.3881291419967089e+05   2.3444505221989215e+05   2.2978952720402161e+05   2.3658808894114287e+05   2.2452742388528524e+05   2.2841659042009461e+05   2.3444535112488136e+05   2.2612182463696692e+05   2.2108664625945486e+05   2.3473894212206549e+05   2.1991671899325712e+05   2.2659525352506246e+05   2.3144280180643787e+05   2.1940367721864380e+05   2.1380630488133125e+05   2.3384395306287831e+05   2.1633053070574324e+05   2.2551951001827393e+05   2.3020870142831211e+05   2.1540843625251387e+05   2.0872604420823831e+05   2.3443633732176272e+05   2.1446530604030823e+05   2.2594485377488707e+05   2.2275320280249268e+05   2.0902661003203510e+05   2.0303073761778549e+05   2.3079983213624885e+05   2.1205983485515212e+05   2.2482927317126404e+05   1.6631679916180146e+05   1.6369645249584049e+05   1.7423039461476449e+05   1.9034284749608053e+05   1.9035235076458007e+05   1.9984493236552156e+05   2.4689416624583612e+05   1.4642599897887607e+05   1.2955486745801230e+05   3.7916764965560019e+05   2.1179105847578219e+05   3.0730142916539707e+05   2.1833351640725927e+05   1.4790295909755628e+05   1.5807176941629127e+05   3.1706085321551259e+05   2.3448941429813876e+05   3.3227078445667296e+05   2.3407103501288017e+05   1.7553894559155230e+05   1.8403057988863179e+05   3.1832369258000719e+05   2.5395854898053841e+05   3.3262844764766819e+05   2.4889689287081375e+05   1.9535163782635771e+05   1.9684152826445308e+05   3.2095524679574661e+05   2.5733202551606478e+05   3.2883340081857215e+05   2.6034193703597170e+05   2.1109632593093719e+05   2.0775215949380782e+05   3.2302364952442021e+05   2.5992351463498615e+05   3.2635345940757915e+05   2.6744502895034431e+05   2.2250079135084047e+05   2.1655261176713536e+05   3.2260434335354407e+05   2.6198277364356144e+05   3.2337449429385090e+05   2.7032949762589048e+05   2.2973845136898939e+05   2.2248072908231837e+05   3.1886440029125666e+05   2.6214905324320705e+05   3.1820521928129462e+05   2.6993032482458971e+05   2.3368208865672213e+05   2.2576272021536139e+05   3.1225363177245477e+05   2.6018794555510208e+05   3.1070989875124331e+05   2.6730761623734975e+05   2.3531964418883223e+05   2.2705286947931972e+05   3.0365135168118402e+05   2.5654140642431632e+05   3.0146549194977578e+05   2.6332660659805179e+05   2.3545583225564659e+05   2.2700074409261686e+05   2.9388200086180522e+05   2.5178951457852812e+05   2.9115456583108514e+05   2.5860135030653593e+05   2.3465628827543330e+05   2.2610447414281050e+05   2.8357818764856859e+05   2.4642611068636357e+05   2.8034743286391086e+05   2.5353405690241660e+05   2.3328429437582390e+05   2.2470177176704109e+05   2.7318711499764357e+05   2.4081254365121404e+05   2.6946858521194744e+05   2.4837090804531885e+05   2.3155743233897275e+05   2.2300408280777480e+05   2.6301076494832459e+05   2.3519394263784328e+05   2.5881960845618523e+05   2.4325906367947074e+05   2.2961383993543516e+05   2.2114548627923880e+05   2.5324318060519654e+05   2.2973115073471642e+05   2.4860909780714559e+05   2.3833579449864384e+05   2.2762555056815158e+05   2.1926609067027809e+05   2.4401014260953947e+05   2.2454758038364653e+05   2.3898277136322364e+05   2.3392991182678638e+05   2.2603165209611782e+05   2.1769036819060799e+05   2.3546815301828616e+05   2.1983141991298329e+05   2.3008643093878019e+05   2.3087783243723793e+05   2.2579751205443614e+05   2.1718689865652492e+05   2.2809651303222566e+05   2.1605277433905585e+05   2.2226041372385112e+05   2.2980186499276079e+05   2.2725534482594865e+05   2.1842867067035849e+05   2.2297845462318382e+05   2.1400204898445364e+05   2.1634914424829639e+05   2.2329585789004329e+05   2.2107814715909827e+05   2.1622512725994558e+05   2.1825759093559152e+05   2.1191496721835743e+05   2.1194603806553106e+05   1.6950099095929219e+05   1.6249744872708162e+05   1.8114355144400816e+05   1.8883182646883419e+05   1.9158895041130469e+05   1.9229348011810501e+05   6.6808851243825257e+05   5.5688221111514559e+05   4.9072147016633936e+05   8.5387048470337305e+05   5.3854402053441573e+05   6.6641022826765897e+05   6.2983045170334191e+05   5.4236137891826185e+05   5.5592225130648923e+05   7.4065402169736801e+05   6.6070472373602388e+05   7.7952701983930985e+05   6.0513036185286148e+05   5.1941403584073234e+05   5.3539543705903227e+05   7.0825064709898329e+05   6.4507774023173167e+05   7.3618888251968904e+05   5.8305444647294376e+05   4.9900506814431550e+05   5.0969296819504304e+05   6.8053832929377246e+05   6.1108169233764650e+05   6.9886912689096155e+05   5.6133450362774846e+05   4.8063436021000653e+05   4.8745352379804611e+05   6.5341831340336439e+05   5.8160534835629060e+05   6.6697167788153631e+05   5.3725819322270632e+05   4.6128160849518701e+05   4.6588776404269022e+05   6.2360353272616956e+05   5.5347708122939919e+05   6.3481650015552202e+05   5.1030756782725925e+05   4.3994071332074166e+05   4.4326109680474846e+05   5.9049163181397878e+05   5.2432937169577682e+05   6.0046670061251894e+05   4.8107580962563696e+05   4.1685383770316275e+05   4.1933417643066088e+05   5.5473242656656716e+05   4.9371839859222982e+05   5.6396953386323375e+05   4.5037635265694465e+05   3.9262359975648060e+05   3.9446088762222364e+05   5.1721063875361340e+05   4.6196364549241209e+05   5.2592586158782733e+05   4.1891726193327649e+05   3.6783953249511099e+05   3.6910723076303786e+05   4.7868548363739479e+05   4.2953930598514533e+05   4.8695552084442700e+05   3.8724982356720732e+05   3.4298653868483717e+05   3.4369533984654548e+05   4.3973545259057841e+05   3.9687808665123803e+05   4.4756390372744348e+05   3.5580411572885152e+05   3.1845433862983040e+05   3.1858280420376314e+05   4.0079976460511476e+05   3.6434218762436102e+05   4.0814639989862812e+05   3.2493463160531019e+05   2.9456760620512889e+05   2.9408165568533004e+05   3.6223420439530647e+05   3.3224526830128004e+05   3.6902804187974357e+05   2.9494224503701873e+05   2.7160377133010968e+05   2.7047656406037929e+05   3.2434965008109115e+05   3.0087841977128276e+05   3.3050028177366994e+05   2.6603861868199531e+05   2.4977974128217509e+05   2.4801941141557641e+05   2.8740248305091524e+05   2.7051081412291282e+05   2.9282933919814060e+05   2.3822398344297634e+05   2.2922037170915931e+05   2.2689532728008667e+05   2.5147786608213242e+05   2.4132658041839319e+05   2.5619023356537224e+05   2.1130944465592431e+05   2.1013887221338873e+05   2.0731112617840598e+05   2.1627192582175223e+05   2.1330952431018863e+05   2.2048231696466083e+05   1.8668341931674216e+05   1.9404638968042776e+05   1.9048649914414453e+05   1.8178610865245218e+05   1.8665792582032163e+05   1.8545989843917559e+05   1.7191081617933928e+05   1.8453437951645072e+05   1.8046982595407552e+05   1.5500405800912253e+05   1.6511856437980759e+05   1.5451575650281346e+05   1.6823872983187722e+05   1.6347750201439901e+05   1.7133160743535872e+05   1.5860555003961219e+05   1.5873048273757644e+05   1.4791013273908009e+05   1.1602830199567047e+06   1.0502013510395421e+06   9.4636959658411762e+05   1.4193732381555515e+06   9.9513482889921579e+05   1.2034646246189706e+06   1.0504047577063036e+06   9.7463261411721469e+05   1.0051249553262051e+06   1.1715204573675597e+06   1.1232854343833716e+06   1.2285879814263487e+06   1.0032765848178363e+06   9.1768290667320648e+05   9.4164611685260199e+05   1.1189560419428614e+06   1.0613590492110031e+06   1.1529170476044579e+06   9.6200065178739943e+05   8.7356784758031357e+05   8.9120655065633287e+05   1.0744398825732130e+06   1.0050804245422807e+06   1.0996422944523005e+06   9.1630991415970400e+05   8.2983151722533267e+05   8.4447165004419431e+05   1.0237281156420832e+06   9.5274400043639471e+05   1.0450250100112221e+06   8.6562382175700145e+05   7.8334820639057504e+05   7.9658798680850677e+05   9.6721453069579252e+05   8.9890477522688371e+05   9.8661047711275646e+05   8.1117001405065705e+05   7.3418126345457067e+05   7.4672338019000855e+05   9.0659520240236074e+05   8.4282112215579546e+05   9.2502479003606178e+05   7.5418482580136880e+05   6.8304243338953564e+05   6.9519861875089095e+05   8.4327330221292004e+05   7.8493695059161191e+05   8.6120240510536672e+05   6.9560411880089110e+05   6.3061930499853520e+05   6.4252087743024132e+05   7.7824460313109856e+05   7.2580711253661127e+05   7.9590381239008310e+05   6.3607626206200023e+05   5.7744169922987663e+05   5.8913326222219714e+05   7.1217789298723859e+05   6.6588479000172671e+05   7.2967804276461352e+05   5.7603528058059572e+05   5.2389158180866152e+05   5.3537298407137068e+05   6.4550744999675627e+05   6.0550096634678659e+05   6.6289905812889861e+05   5.1577187111610250e+05   4.7024591479563550e+05   4.8148994155873155e+05   5.7850832735487644e+05   5.4488726268076315e+05   5.9581085316506890e+05   4.5548883100192470e+05   4.1671978447602200e+05   4.2767910523819958e+05   5.1135093467036955e+05   4.8420636535759066e+05   5.2856638744486473e+05   3.9534201023172622e+05   3.6349980274738453e+05   3.7411254123452574e+05   4.4413944570116588e+05   4.2358107742056984e+05   4.6125732964153128e+05   3.3547370694884617e+05   3.1075817920162331e+05   3.2096698694574914e+05   3.7695134248270816e+05   3.6312635589128779e+05   3.9394440383153618e+05   2.7604325514707458e+05   2.5861570930485998e+05   2.6843655627620005e+05   3.0993250212970271e+05   3.0300308500822127e+05   3.2673101064085314e+05   2.1722552630659498e+05   2.0698875267395578e+05   2.1668722668899666e+05   2.4360382788811735e+05   2.4351973449952164e+05   2.6001617555423905e+05   1.5920447737768496e+05   1.5567188195406369e+05   1.6580366216953221e+05   1.7973849971134015e+05   1.8522685614562096e+05   1.9526662442261414e+05   1.0463308842779350e+05   1.1070111591591890e+05   1.1867832550136154e+05   1.2274218194712572e+05   1.2880605401773218e+05   1.3649522954700579e+05   1.1259947874952795e+05   1.3837426465735096e+05   1.1915968712103860e+05   7.8551804284231737e+04   8.4849049331744754e+04   8.7969484997325635e+04   1.1307794364992038e+06   1.2116169168077114e+06   1.2662011032325071e+06   8.9554600509566150e+05   8.8252977386755380e+05   7.6308433100903616e+05   1.1001038107100325e+06   1.1945701067330467e+06   1.1867202585839431e+06   1.0112124616802844e+06   1.1073250042071072e+06   1.0004804815134796e+06   1.0452293777771813e+06   1.1520478388304811e+06   1.1610254251666518e+06   9.5825589766829414e+05   1.0715188828983859e+06   9.7306426652111148e+05   9.8951719491424016e+05   1.0928834683917968e+06   1.1085407727089059e+06   9.0497600579727883e+05   1.0209929632942459e+06   9.2107120840976608e+05   9.3304143040764146e+05   1.0293051955312185e+06   1.0466599761676847e+06   8.5430140777115047e+05   9.6505349756567180e+05   8.6923024914668908e+05   8.7532100230675598e+05   9.6412937961962959e+05   9.8185469610852934e+05   8.0332265655093745e+05   9.0686774008946633e+05   8.1722860577222076e+05   8.1647331512786762e+05   8.9809560374364583e+05   9.1589173292829690e+05   7.5133661535809434e+05   8.4752627810950042e+05   7.6456618398916081e+05   7.5677513108358311e+05   8.3149343547084229e+05   8.4930840712633880e+05   6.9842872897392255e+05   7.8747610596347228e+05   7.1123293004963978e+05   6.9649676429881982e+05   7.6450350267862668e+05   7.8233493635161105e+05   6.4485840439685422e+05   7.2696709221310820e+05   6.5739007699770539e+05   6.3585908823009219e+05   6.9726203253301978e+05   7.1511195084561664e+05   5.9088001034023159e+05   6.6617143732417154e+05   6.0322366872227192e+05   5.7503017767425627e+05   6.2987206638206274e+05   6.4774023872761184e+05   5.3670273978736624e+05   6.0521788792730065e+05   5.4889883013658272e+05   5.1413636910311237e+05   5.6240915773146937e+05   5.8029522882361035e+05   4.8249452145002718e+05   5.4420701346648578e+05   4.9455503483514150e+05   4.5327891494286095e+05   4.9493008417342824e+05   5.1283681134147913e+05   4.2839986663922458e+05   4.83224505101779