<?xml version="1.0"?>
<VTKFile type="UnstructuredGrid"  version="0.1"  >
<UnstructuredGrid>
<Piece  NumberOfPoints="525" NumberOfCells="1920">
<Points>
<DataArray  type="Float64"  NumberOfComponents="3"  format="ascii">0 0 0  0.05 0 0  0.1 0 0  0.15 0 0  0.2 0 0  0.25 0 0  0.3 0 0  0.35 0 0  0.4 0 0  0.45 0 0  0.5 0 0  0.55 0 0  0.6 0 0  0.65 0 0  0.7 0 0  0.75 0 0  0.8 0 0  0.85 0 0  0.9 0 0  0.95 0 0  1 0 0  0 0.005 0  0.05 0.005 0  0.1 0.005 0  0.15 0.005 0  0.2 0.005 0  0.25 0.005 0  0.3 0.005 0  0.35 0.005 0  0.4 0.005 0  0.45 0.005 0  0.5 0.005 0  0.55 0.005 0  0.6 0.005 0  0.65 0.005 0  0.7 0.005 0  0.75 0.005 0  0.8 0.005 0  0.85 0.005 0  0.9 0.005 0  0.95 0.005 0  1 0.005 0  0 0.01 0  0.05 0.01 0  0.1 0.01 0  0.15 0.01 0  0.2 0.01 0  0.25 0.01 0  0.3 0.01 0  0.35 0.01 0  0.4 0.01 0  0.45 0.01 0  0.5 0.01 0  0.55 0.01 0  0.6 0.01 0  0.65 0.01 0  0.7 0.01 0  0.75 0.01 0  0.8 0.01 0  0.85 0.01 0  0.9 0.01 0  0.95 0.01 0  1 0.01 0  0 0.015 0  0.05 0.015 0  0.1 0.015 0  0.15 0.015 0  0.2 0.015 0  0.25 0.015 0  0.3 0.015 0  0.35 0.015 0  0.4 0.015 0  0.45 0.015 0  0.5 0.015 0  0.55 0.015 0  0.6 0.015 0  0.65 0.015 0  0.7 0.015 0  0.75 0.015 0  0.8 0.015 0  0.85 0.015 0  0.9 0.015 0  0.95 0.015 0  1 0.015 0  0 0.02 0  0.05 0.02 0  0.1 0.02 0  0.15 0.02 0  0.2 0.02 0  0.25 0.02 0  0.3 0.02 0  0.35 0.02 0  0.4 0.02 0  0.45 0.02 0  0.5 0.02 0  0.55 0.02 0  0.6 0.02 0  0.65 0.02 0  0.7 0.02 0  0.75 0.02 0  0.8 0.02 0  0.85 0.02 0  0.9 0.02 0  0.95 0.02 0  1 0.02 0  0 0 0.005  0.05 0 0.005  0.1 0 0.005  0.15 0 0.005  0.2 0 0.005  0.25 0 0.005  0.3 0 0.005  0.35 0 0.005  0.4 0 0.005  0.45 0 0.005  0.5 0 0.005  0.55 0 0.005  0.6 0 0.005  0.65 0 0.005  0.7 0 0.005  0.75 0 0.005  0.8 0 0.005  0.85 0 0.005  0.9 0 0.005  0.95 0 0.005  1 0 0.005  0 0.005 0.005  0.05 0.005 0.005  0.1 0.005 0.005  0.15 0.005 0.005  0.2 0.005 0.005  0.25 0.005 0.005  0.3 0.005 0.005  0.35 0.005 0.005  0.4 0.005 0.005  0.45 0.005 0.005  0.5 0.005 0.005  0.55 0.005 0.005  0.6 0.005 0.005  0.65 0.005 0.005  0.7 0.005 0.005  0.75 0.005 0.005  0.8 0.005 0.005  0.85 0.005 0.005  0.9 0.005 0.005  0.95 0.005 0.005  1 0.005 0.005  0 0.01 0.005  0.05 0.01 0.005  0.1 0.01 0.005  0.15 0.01 0.005  0.2 0.01 0.005  0.25 0.01 0.005  0.3 0.01 0.005  0.35 0.01 0.005  0.4 0.01 0.005  0.45 0.01 0.005  0.5 0.01 0.005  0.55 0.01 0.005  0.6 0.01 0.005  0.65 0.01 0.005  0.7 0.01 0.005  0.75 0.01 0.005  0.8 0.01 0.005  0.85 0.01 0.005  0.9 0.01 0.005  0.95 0.01 0.005  1 0.01 0.005  0 0.015 0.005  0.05 0.015 0.005  0.1 0.015 0.005  0.15 0.015 0.005  0.2 0.015 0.005  0.25 0.015 0.005  0.3 0.015 0.005  0.35 0.015 0.005  0.4 0.015 0.005  0.45 0.015 0.005  0.5 0.015 0.005  0.55 0.015 0.005  0.6 0.015 0.005  0.65 0.015 0.005  0.7 0.015 0.005  0.75 0.015 0.005  0.8 0.015 0.005  0.85 0.015 0.005  0.9 0.015 0.005  0.95 0.015 0.005  1 0.015 0.005  0 0.02 0.005  0.05 0.02 0.005  0.1 0.02 0.005  0.15 0.02 0.005  0.2 0.02 0.005  0.25 0.02 0.005  0.3 0.02 0.005  0.35 0.02 0.005  0.4 0.02 0.005  0.45 0.02 0.005  0.5 0.02 0.005  0.55 0.02 0.005  0.6 0.02 0.005  0.65 0.02 0.005  0.7 0.02 0.005  0.75 0.02 0.005  0.8 0.02 0.005  0.85 0.02 0.005  0.9 0.02 0.005  0.95 0.02 0.005  1 0.02 0.005  0 0 0.01  0.05 0 0.01  0.1 0 0.01  0.15 0 0.01  0.2 0 0.01  0.25 0 0.01  0.3 0 0.01  0.35 0 0.01  0.4 0 0.01  0.45 0 0.01  0.5 0 0.01  0.55 0 0.01  0.6 0 0.01  0.65 0 0.01  0.7 0 0.01  0.75 0 0.01  0.8 0 0.01  0.85 0 0.01  0.9 0 0.01  0.95 0 0.01  1 0 0.01  0 0.005 0.01  0.05 0.005 0.01  0.1 0.005 0.01  0.15 0.005 0.01  0.2 0.005 0.01  0.25 0.005 0.01  0.3 0.005 0.01  0.35 0.005 0.01  0.4 0.005 0.01  0.45 0.005 0.01  0.5 0.005 0.01  0.55 0.005 0.01  0.6 0.005 0.01  0.65 0.005 0.01  0.7 0.005 0.01  0.75 0.005 0.01  0.8 0.005 0.01  0.85 0.005 0.01  0.9 0.005 0.01  0.95 0.005 0.01  1 0.005 0.01  0 0.01 0.01  0.05 0.01 0.01  0.1 0.01 0.01  0.15 0.01 0.01  0.2 0.01 0.01  0.25 0.01 0.01  0.3 0.01 0.01  0.35 0.01 0.01  0.4 0.01 0.01  0.45 0.01 0.01  0.5 0.01 0.01  0.55 0.01 0.01  0.6 0.01 0.01  0.65 0.01 0.01  0.7 0.01 0.01  0.75 0.01 0.01  0.8 0.01 0.01  0.85 0.01 0.01  0.9 0.01 0.01  0.95 0.01 0.01  1 0.01 0.01  0 0.015 0.01  0.05 0.015 0.01  0.1 0.015 0.01  0.15 0.015 0.01  0.2 0.015 0.01  0.25 0.015 0.01  0.3 0.015 0.01  0.35 0.015 0.01  0.4 0.015 0.01  0.45 0.015 0.01  0.5 0.015 0.01  0.55 0.015 0.01  0.6 0.015 0.01  0.65 0.015 0.01  0.7 0.015 0.01  0.75 0.015 0.01  0.8 0.015 0.01  0.85 0.015 0.01  0.9 0.015 0.01  0.95 0.015 0.01  1 0.015 0.01  0 0.02 0.01  0.05 0.02 0.01  0.1 0.02 0.01  0.15 0.02 0.01  0.2 0.02 0.01  0.25 0.02 0.01  0.3 0.02 0.01  0.35 0.02 0.01  0.4 0.02 0.01  0.45 0.02 0.01  0.5 0.02 0.01  0.55 0.02 0.01  0.6 0.02 0.01  0.65 0.02 0.01  0.7 0.02 0.01  0.75 0.02 0.01  0.8 0.02 0.01  0.85 0.02 0.01  0.9 0.02 0.01  0.95 0.02 0.01  1 0.02 0.01  0 0 0.015  0.05 0 0.015  0.1 0 0.015  0.15 0 0.015  0.2 0 0.015  0.25 0 0.015  0.3 0 0.015  0.35 0 0.015  0.4 0 0.015  0.45 0 0.015  0.5 0 0.015  0.55 0 0.015  0.6 0 0.015  0.65 0 0.015  0.7 0 0.015  0.75 0 0.015  0.8 0 0.015  0.85 0 0.015  0.9 0 0.015  0.95 0 0.015  1 0 0.015  0 0.005 0.015  0.05 0.005 0.015  0.1 0.005 0.015  0.15 0.005 0.015  0.2 0.005 0.015  0.25 0.005 0.015  0.3 0.005 0.015  0.35 0.005 0.015  0.4 0.005 0.015  0.45 0.005 0.015  0.5 0.005 0.015  0.55 0.005 0.015  0.6 0.005 0.015  0.65 0.005 0.015  0.7 0.005 0.015  0.75 0.005 0.015  0.8 0.005 0.015  0.85 0.005 0.015  0.9 0.005 0.015  0.95 0.005 0.015  1 0.005 0.015  0 0.01 0.015  0.05 0.01 0.015  0.1 0.01 0.015  0.15 0.01 0.015  0.2 0.01 0.015  0.25 0.01 0.015  0.3 0.01 0.015  0.35 0.01 0.015  0.4 0.01 0.015  0.45 0.01 0.015  0.5 0.01 0.015  0.55 0.01 0.015  0.6 0.01 0.015  0.65 0.01 0.015  0.7 0.01 0.015  0.75 0.01 0.015  0.8 0.01 0.015  0.85 0.01 0.015  0.9 0.01 0.015  0.95 0.01 0.015  1 0.01 0.015  0 0.015 0.015  0.05 0.015 0.015  0.1 0.015 0.015  0.15 0.015 0.015  0.2 0.015 0.015  0.25 0.015 0.015  0.3 0.015 0.015  0.35 0.015 0.015  0.4 0.015 0.015  0.45 0.015 0.015  0.5 0.015 0.015  0.55 0.015 0.015  0.6 0.015 0.015  0.65 0.015 0.015  0.7 0.015 0.015  0.75 0.015 0.015  0.8 0.015 0.015  0.85 0.015 0.015  0.9 0.015 0.015  0.95 0.015 0.015  1 0.015 0.015  0 0.02 0.015  0.05 0.02 0.015  0.1 0.02 0.015  0.15 0.02 0.015  0.2 0.02 0.015  0.25 0.02 0.015  0.3 0.02 0.015  0.35 0.02 0.015  0.4 0.02 0.015  0.45 0.02 0.015  0.5 0.02 0.015  0.55 0.02 0.015  0.6 0.02 0.015  0.65 0.02 0.015  0.7 0.02 0.015  0.75 0.02 0.015  0.8 0.02 0.015  0.85 0.02 0.015  0.9 0.02 0.015  0.95 0.02 0.015  1 0.02 0.015  0 0 0.02  0.05 0 0.02  0.1 0 0.02  0.15 0 0.02  0.2 0 0.02  0.25 0 0.02  0.3 0 0.02  0.35 0 0.02  0.4 0 0.02  0.45 0 0.02  0.5 0 0.02  0.55 0 0.02  0.6 0 0.02  0.65 0 0.02  0.7 0 0.02  0.75 0 0.02  0.8 0 0.02  0.85 0 0.02  0.9 0 0.02  0.95 0 0.02  1 0 0.02  0 0.005 0.02  0.05 0.005 0.02  0.1 0.005 0.02  0.15 0.005 0.02  0.2 0.005 0.02  0.25 0.005 0.02  0.3 0.005 0.02  0.35 0.005 0.02  0.4 0.005 0.02  0.45 0.005 0.02  0.5 0.005 0.02  0.55 0.005 0.02  0.6 0.005 0.02  0.65 0.005 0.02  0.7 0.005 0.02  0.75 0.005 0.02  0.8 0.005 0.02  0.85 0.005 0.02  0.9 0.005 0.02  0.95 0.005 0.02  1 0.005 0.02  0 0.01 0.02  0.05 0.01 0.02  0.1 0.01 0.02  0.15 0.01 0.02  0.2 0.01 0.02  0.25 0.01 0.02  0.3 0.01 0.02  0.35 0.01 0.02  0.4 0.01 0.02  0.45 0.01 0.02  0.5 0.01 0.02  0.55 0.01 0.02  0.6 0.01 0.02  0.65 0.01 0.02  0.7 0.01 0.02  0.75 0.01 0.02  0.8 0.01 0.02  0.85 0.01 0.02  0.9 0.01 0.02  0.95 0.01 0.02  1 0.01 0.02  0 0.015 0.02  0.05 0.015 0.02  0.1 0.015 0.02  0.15 0.015 0.02  0.2 0.015 0.02  0.25 0.015 0.02  0.3 0.015 0.02  0.35 0.015 0.02  0.4 0.015 0.02  0.45 0.015 0.02  0.5 0.015 0.02  0.55 0.015 0.02  0.6 0.015 0.02  0.65 0.015 0.02  0.7 0.015 0.02  0.75 0.015 0.02  0.8 0.015 0.02  0.85 0.015 0.02  0.9 0.015 0.02  0.95 0.015 0.02  1 0.015 0.02  0 0.02 0.02  0.05 0.02 0.02  0.1 0.02 0.02  0.15 0.02 0.02  0.2 0.02 0.02  0.25 0.02 0.02  0.3 0.02 0.02  0.35 0.02 0.02  0.4 0.02 0.02  0.45 0.02 0.02  0.5 0.02 0.02  0.55 0.02 0.02  0.6 0.02 0.02  0.65 0.02 0.02  0.7 0.02 0.02  0.75 0.02 0.02  0.8 0.02 0.02  0.85 0.02 0.02  0.9 0.02 0.02  0.95 0.02 0.02  1 0.02 0.02  </DataArray>
</Points>
<Cells>
[...]
<CellData  Scalars="f_58"> 
<DataArray  type="Float64"  Name="f_58"  format="ascii">2.3000453132017490e+07   2.3000453132013716e+07   2.0688546017137364e+07   2.0688546017167646e+07   1.7052015516789388e+07   1.7052015516789388e+07   2.4893853440657984e+07   2.4893853440655235e+07   2.4829284601133566e+07   2.4829284601170059e+07   2.4867934737997215e+07   2.4867934737999924e+07   2.4996984841854125e+07   2.4996984841851588e+07   2.4988857123852953e+07   2.4988857123885456e+07   2.4991882251693275e+07   2.4991882251696069e+07   2.4999828667514820e+07   2.4999828667512450e+07   2.4999276994095054e+07   2.4999276994124833e+07   2.5000056979987152e+07   2.5000056979989696e+07   2.4999964006959569e+07   2.4999964006957412e+07   2.4999888883048587e+07   2.4999888883076165e+07   2.4999964961992897e+07   2.4999964961995259e+07   2.4999993177378584e+07   2.4999993177376606e+07   2.4999981561018273e+07   2.4999981561043300e+07   2.4999990412535932e+07   2.4999990412538093e+07   2.4999998714029819e+07   2.4999998714028105e+07   2.4999996755715914e+07   2.4999996755738571e+07   2.4999998017077457e+07   2.4999998017079435e+07   2.4999999769851916e+07   2.4999999769850362e+07   2.4999999430481739e+07   2.4999999430502228e+07   2.4999999630409840e+07   2.4999999630411554e+07   2.4999999958500151e+07   2.4999999958498746e+07   2.4999999898572564e+07   2.4999999898590386e+07   2.4999999932532340e+07   2.4999999932533886e+07   2.4999999992530439e+07   2.4999999992529280e+07   2.4999999981864274e+07   2.4999999981880169e+07   2.4999999987793848e+07   2.4999999987795256e+07   2.4999999998638041e+07   2.4999999998637099e+07   2.4999999996726930e+07   2.4999999996740311e+07   2.4999999997784235e+07   2.4999999997785401e+07   2.4999999999739669e+07   2.4999999999738850e+07   2.4999999999393463e+07   2.4999999999404807e+07   2.4999999999587443e+07   2.4999999999588381e+07   2.4999999999941550e+07   2.4999999999940857e+07   2.4999999999876585e+07   2.4999999999886017e+07   2.4999999999916036e+07   2.4999999999916855e+07   2.4999999999980986e+07   2.4999999999980554e+07   2.4999999999966647e+07   2.4999999999974079e+07   2.4999999999976397e+07   2.4999999999977071e+07   2.4999999999992061e+07   2.4999999999991681e+07   2.4999999999987826e+07   2.4999999999993298e+07   2.4999999999992274e+07   2.4999999999992698e+07   2.4999999999992684e+07   2.4999999999992371e+07   2.4999999999991097e+07   2.4999999999995489e+07   2.4999999999994475e+07   2.4999999999994852e+07   2.4999999999993563e+07   2.4999999999993350e+07   2.4999999999991804e+07   2.4999999999995183e+07   2.4999999999993369e+07   2.4999999999993682e+07   2.4999999999993216e+07   2.4999999999993060e+07   2.4999999999992359e+07   2.4999999999994796e+07   2.4999999999993939e+07   2.4999999999994144e+07   2.4999999999998309e+07   2.4999999999998387e+07   2.4999999999997031e+07   2.4999999999998059e+07   2.4999999999996848e+07   2.4999999999997005e+07   2.5000000000000000e+07   2.4999999999999996e+07   2.5000000000000332e+07   2.4999999999999966e+07   2.5000000000000350e+07   2.5000000000000272e+07   2.2832898746514529e+07   2.2871842733446263e+07   2.0428915958737504e+07   2.0522858019757017e+07   1.6876105556969494e+07   1.6876105556969494e+07   2.4931388509908564e+07   2.4932158097767971e+07   2.4970621008449394e+07   2.4841492267223794e+07   2.4921536145614624e+07   2.4882905708106108e+07   2.4998175543813612e+07   2.4998956296134986e+07   2.5001979645034101e+07   2.4996821273348436e+07   2.4999839519987252e+07   2.4999070204714704e+07   2.4999854801972952e+07   2.4999913616033118e+07   2.5000693562433299e+07   2.4998767702102866e+07   2.5000027102009956e+07   2.4999246327430405e+07   2.4999959484505724e+07   2.4999972778111372e+07   2.5000048855369046e+07   2.4999765057350032e+07   2.4999944540839519e+07   2.4999885726648655e+07   2.4999992406376962e+07   2.4999994932600379e+07   2.5000003784055538e+07   2.4999954613459196e+07   2.4999990444513630e+07   2.4999977150901210e+07   2.4999998626126572e+07   2.4999999080323793e+07   2.5000000341663495e+07   2.4999991640753847e+07   2.4999998530003782e+07   2.4999996003780115e+07   2.4999999756804232e+07   2.4999999838634782e+07   2.5000000038544092e+07   2.4999998492278524e+07   2.4999999760812845e+07   2.4999999306615610e+07   2.4999999956473298e+07   2.4999999971113741e+07   2.5000000005057238e+07   2.4999999728873488e+07   2.4999999959382746e+07   2.4999999877552193e+07   2.4999999992197741e+07   2.4999999994820684e+07   2.5000000000735763e+07   2.4999999951320048e+07   2.4999999992863271e+07   2.4999999978222828e+07   2.4999999998590164e+07   2.4999999999058794e+07   2.5000000000103880e+07   2.4999999991254393e+07   2.4999999998724837e+07   2.4999999996101882e+07   2.4999999999738630e+07   2.4999999999821700e+07   2.5000000000005279e+07   2.4999999998426408e+07   2.4999999999765027e+07   2.4999999999296393e+07   2.4999999999947485e+07   2.4999999999961715e+07   2.4999999999992557e+07   2.4999999999716550e+07   2.4999999999954309e+07   2.4999999999871232e+07   2.4999999999986582e+07   2.4999999999988597e+07   2.4999999999991585e+07   2.4999999999948151e+07   2.4999999999987904e+07   2.4999999999973673e+07   2.4999999999996427e+07   2.4999999999996465e+07   2.4999999999995872e+07   2.4999999999992564e+07   2.4999999999998108e+07   2.4999999999996085e+07   2.4999999999996491e+07   2.4999999999996208e+07   2.4999999999995563e+07   2.4999999999998391e+07   2.4999999999998383e+07   2.4999999999998346e+07   2.4999999999995746e+07   2.4999999999995582e+07   2.4999999999994077e+07   2.4999999999997292e+07   2.4999999999995999e+07   2.4999999999996275e+07   2.4999999999995239e+07   2.4999999999994978e+07   2.4999999999994330e+07   2.4999999999996707e+07   2.4999999999996163e+07   2.4999999999996331e+07   2.4999999999998730e+07   2.4999999999998681e+07   2.4999999999997631e+07   2.4999999999998689e+07   2.4999999999997232e+07   2.4999999999997485e+07   2.5000000000000097e+07   2.5000000000000097e+07   2.5000000000000399e+07   2.5000000000000153e+07   2.5000000000000477e+07   2.5000000000000529e+07   2.2663011488008916e+07   2.2709087183194660e+07   2.0263380306561116e+07   2.0395443402709059e+07   1.6740635491565496e+07   1.6740635491565496e+07   2.4935668755298197e+07   2.4941670269924112e+07   2.4983159081643265e+07   2.4802499673141096e+07   2.4889045684512161e+07   2.4842667564200774e+07   2.4999514288117778e+07   2.5000644471500915e+07   2.5002895439383503e+07   2.4992121427292544e+07   2.5002620610526256e+07   2.4996617341853663e+07   2.4999858133214843e+07   2.5000067754258364e+07   2.5000546288532175e+07   2.4998063864180911e+07   2.5000364709341954e+07   2.4999234465023946e+07   2.4999970077356208e+07   2.5000000270359471e+07   2.5000120937142055e+07   2.4999600635379091e+07   2.5000057196684390e+07   2.4999847574190628e+07   2.4999994283027325e+07   2.4999999774927940e+07   2.5000022312293485e+07   2.4999928957524091e+07   2.5000006388075992e+07   2.4999976195027843e+07   2.4999998973019551e+07   2.4999999936798524e+07   2.5000004299821824e+07   2.4999987238894213e+07   2.5000001194238432e+07   2.4999995702336371e+07   2.4999999816240087e+07   2.4999999985726815e+07   2.5000000800063793e+07   2.4999997699845057e+07   2.5000000194199987e+07   2.4999999230420977e+07   2.4999999967095654e+07   2.4999999997013766e+07   2.5000000145692464e+07   2.4999999585780408e+07   2.5000000031521071e+07   2.4999999862034351e+07   2.4999999994102888e+07   2.4999999999422509e+07   2.5000000026325297e+07   2.4999999925578348e+07   2.5000000005309001e+07   2.4999999975390885e+07   2.4999999998941608e+07   2.4999999999889608e+07   2.5000000004737098e+07   2.4999999986640178e+07   2.5000000000918813e+07   2.4999999995599184e+07   2.4999999999809090e+07   2.4999999999977659e+07   2.5000000000847645e+07   2.4999999997606002e+07   2.5000000000162080e+07   2.4999999999214079e+07   2.4999999999966282e+07   2.4999999999995712e+07   2.5000000000150390e+07   2.4999999999575734e+07   2.5000000000031244e+07   2.4999999999862671e+07   2.4999999999994338e+07   2.4999999999999009e+07   2.5000000000024538e+07   2.4999999999927446e+07   2.5000000000006430e+07   2.4999999999976993e+07   2.5000000000001743e+07   2.5000000000002198e+07   2.5000000000005726e+07   2.4999999999992583e+07   2.5000000000005264e+07   2.5000000000000585e+07   2.5000000000000261e+07   2.5000000000000142e+07   2.5000000000000089e+07   2.5000000000001419e+07   2.5000000000002705e+07   2.5000000000002246e+07   2.4999999999998078e+07   2.4999999999997739e+07   2.4999999999996733e+07   2.4999999999999862e+07   2.4999999999998886e+07   2.4999999999999002e+07   2.4999999999996994e+07   2.4999999999996860e+07   2.4999999999996491e+07   2.4999999999998912e+07   2.4999999999998111e+07   2.4999999999998454e+07   2.4999999999999300e+07   2.4999999999999039e+07   2.4999999999997828e+07   2.4999999999998484e+07   2.4999999999997571e+07   2.4999999999997705e+07   2.5000000000000276e+07   2.5000000000000287e+07   2.5000000000000656e+07   2.5000000000000823e+07   2.5000000000000786e+07   2.5000000000001047e+07   2.2594321606721640e+07   2.2585791527260669e+07   2.0141252022454873e+07   2.0452515400793668e+07   1.6641075364528928e+07   1.6641075364528928e+07   2.4923190133079294e+07   2.4926898500521861e+07   2.4967152472099707e+07   2.4719532567062646e+07   2.4848707642960645e+07   2.4854956203691252e+07   2.5001245383807216e+07   2.5001703255592491e+07   2.5006210052041885e+07   2.4982423688519452e+07   2.5002955932565913e+07   2.4999237261969119e+07   2.5000145869840596e+07   2.5000252082464416e+07   2.5001422860282518e+07   2.4997409402525622e+07   2.5001146966067638e+07   2.5000689021726295e+07   2.5000016106042892e+07   2.5000029812703822e+07   2.5000276753431555e+07   2.4999511191297412e+07   2.5000145640094060e+07   2.5000039425061326e+07   2.5000002276804738e+07   2.5000004563318580e+07   2.5000051800906602e+07   2.4999916902090840e+07   2.5000020644477561e+07   2.5000006937744312e+07   2.5000000385220032e+07   2.5000000807615604e+07   2.5000009271061130e+07   2.4999985718555316e+07   2.5000003109067261e+07   2.5000000822551377e+07   2.5000000062437005e+07   2.5000000140313357e+07   2.5000001670889385e+07   2.4999997511279255e+07   2.5000000525690645e+07   2.5000000103295013e+07   2.5000000010715645e+07   2.5000000024727356e+07   2.5000000300981302e+07   2.4999999561066270e+07   2.5000000089758489e+07   2.5000000011882130e+07   2.5000000001858786e+07   2.5000000004381403e+07   2.5000000054193951e+07   2.4999999922237981e+07   2.5000000015577029e+07   2.5000000001565311e+07   2.5000000000333425e+07   2.5000000000786472e+07   2.5000000009745482e+07   2.4999999986179072e+07   2.5000000002736144e+07   2.5000000000213534e+07   2.5000000000065014e+07   2.5000000000145748e+07   2.5000000001753833e+07   2.4999999997546013e+07   2.5000000000491820e+07   2.5000000000038777e+07   2.5000000000018146e+07   2.5000000000032127e+07   2.5000000000319064e+07   2.4999999999572832e+07   2.5000000000096411e+07   2.5000000000015683e+07   2.5000000000007857e+07   2.5000000000009906e+07   2.5000000000059448e+07   2.4999999999931708e+07   2.5000000000023250e+07   2.5000000000009265e+07   2.5000000000007756e+07   2.5000000000007756e+07   2.5000000000015769e+07   2.4999999999997139e+07   2.5000000000011906e+07   2.5000000000009857e+07   2.5000000000004251e+07   2.5000000000003994e+07   2.5000000000004832e+07   2.5000000000005163e+07   2.5000000000006925e+07   2.5000000000006925e+07   2.5000000000000574e+07   2.5000000000000387e+07   2.4999999999999538e+07   2.5000000000002209e+07   2.5000000000001539e+07   2.5000000000001784e+07   2.4999999999999180e+07   2.4999999999999106e+07   2.4999999999998648e+07   2.5000000000000894e+07   2.5000000000000268e+07   2.5000000000000447e+07   2.4999999999998685e+07   2.4999999999998786e+07   2.4999999999998011e+07   2.4999999999998901e+07   2.4999999999998521e+07   2.4999999999998596e+07   2.5000000000001024e+07   2.5000000000000853e+07   2.5000000000001069e+07   2.5000000000000883e+07   2.5000000000000749e+07   2.5000000000000641e+07   2.2871842733408425e+07   2.2832898746469084e+07   2.0522858019683823e+07   2.0428915958729029e+07   1.6876105556931641e+07   1.6876105556931641e+07   2.4932158097731162e+07   2.4931388509864908e+07   2.4841492267147578e+07   2.4970621008446351e+07   2.4882905708063193e+07   2.4921536145578898e+07   2.4998956296100557e+07   2.4998175543772768e+07   2.4996821273277607e+07   2.5001979645029347e+07   2.4999070204673097e+07   2.4999839519952569e+07   2.4999913616001405e+07   2.4999854801935326e+07   2.4998767702037163e+07   2.5000693562428802e+07   2.4999246327391747e+07   2.5000027101977725e+07   2.4999972778082035e+07   2.4999959484470971e+07   2.4999765057289887e+07   2.5000048855364915e+07   2.4999885726613361e+07   2.4999944540810145e+07   2.4999994932573780e+07   2.4999992406345401e+07   2.4999954613404121e+07   2.5000003784051806e+07   2.4999977150868680e+07   2.4999990444486510e+07   2.4999999080299642e+07   2.4999998626097970e+07   2.4999991640704002e+07   2.5000000341660023e+07   2.4999996003750637e+07   2.4999998529979270e+07   2.4999999838612974e+07   2.4999999756778512e+07   2.4999998492233627e+07   2.5000000038541045e+07   2.4999999306589097e+07   2.4999999760790780e+07   2.4999999971094683e+07   2.4999999956450805e+07   2.4999999728833593e+07   2.5000000005054448e+07   2.4999999877528429e+07   2.4999999959362891e+07   2.4999999994803827e+07   2.4999999992177866e+07   2.4999999951285884e+07   2.5000000000733394e+07   2.4999999978202675e+07   2.4999999992846541e+07   2.4999999999044422e+07   2.4999999998573240e+07   2.4999999991224598e+07   2.5000000000101738e+07   2.4999999996084284e+07   2.4999999998710245e+07   2.4999999999809578e+07   2.4999999999724429e+07   2.4999999998401362e+07   2.5000000000003561e+07   2.4999999999281187e+07   2.4999999999752365e+07   2.4999999999951623e+07   2.4999999999935750e+07   2.4999999999695715e+07   2.4999999999991067e+07   2.4999999999858659e+07   2.4999999999943808e+07   2.4999999999980561e+07   2.4999999999977306e+07   2.4999999999931961e+07   2.4999999999990311e+07   2.4999999999964233e+07   2.4999999999980099e+07   2.4999999999990445e+07   2.4999999999989461e+07   2.4999999999980159e+07   2.4999999999994893e+07   2.4999999999988440e+07   2.4999999999991696e+07   2.4999999999991421e+07   2.4999999999990974e+07   2.4999999999988079e+07   2.4999999999994796e+07   2.4999999999992087e+07   2.4999999999993071e+07   2.4999999999991897e+07   2.4999999999991525e+07   2.4999999999989949e+07   2.4999999999993466e+07   2.4999999999992020e+07   2.4999999999992460e+07   2.4999999999992386e+07   2.4999999999992359e+07   2.4999999999991380e+07   2.4999999999993965e+07   2.4999999999992818e+07   2.4999999999993194e+07   2.4999999999997500e+07   2.4999999999997474e+07   2.4999999999996260e+07   2.4999999999997322e+07   2.4999999999996115e+07   2.4999999999996141e+07   2.5000000000000432e+07   2.5000000000000514e+07   2.5000000000000920e+07   2.5000000000000451e+07   2.5000000000000522e+07   2.5000000000000551e+07   2.2648503082371362e+07   2.2648503082367059e+07   2.0288625957601875e+07   2.0288625957635500e+07   1.6699113167805376e+07   1.6699113167805376e+07   2.4976931907259196e+07   2.4976931907255258e+07   2.4927887966956694e+07   2.4927887966993313e+07   2.4889698058096170e+07   2.4889698058100447e+07   2.5000406020943727e+07   2.5000406020940043e+07   2.4998268594584614e+07   2.4998268594618253e+07   2.5003385976793312e+07   2.5003385976797268e+07   2.5000023962651834e+07   2.5000023962648448e+07   2.4999357479884133e+07   2.4999357479915265e+07   2.4999975784439601e+07   2.4999975784443285e+07   2.4999982430422645e+07   2.4999982430419534e+07   2.4999878114644974e+07   2.4999878114673331e+07   2.4999963349209867e+07   2.4999963349213250e+07   2.4999996234428138e+07   2.4999996234425373e+07   2.4999982894828603e+07   2.4999982894854750e+07   2.4999994709701125e+07   2.4999994709704231e+07   2.4999999286996506e+07   2.4999999286993925e+07   2.4999997475311916e+07   2.4999997475335531e+07   2.4999998855217617e+07   2.4999998855220381e+07   2.4999999870544128e+07   2.4999999870541818e+07   2.4999999592791505e+07   2.4999999592812844e+07   2.4999999755952951e+07   2.4999999755955521e+07   2.4999999976422980e+07   2.4999999976420987e+07   2.4999999930729426e+07   2.4999999930748485e+07   2.4999999952408008e+07   2.4999999952410322e+07   2.4999999995734219e+07   2.4999999995732538e+07   2.4999999987845689e+07   2.4999999987861719e+07   2.4999999991073776e+07   2.4999999991075769e+07   2.4999999999218412e+07   2.4999999999216910e+07   2.4999999997825418e+07   2.4999999997839354e+07   2.4999999998360265e+07   2.4999999998361945e+07   2.4999999999848057e+07   2.4999999999846924e+07   2.4999999999595735e+07   2.4999999999607809e+07   2.4999999999693289e+07   2.4999999999694787e+07   2.4999999999964859e+07   2.4999999999963898e+07   2.4999999999916635e+07   2.4999999999926619e+07   2.4999999999938540e+07   2.4999999999939669e+07   2.4999999999987159e+07   2.4999999999986324e+07   2.4999999999976117e+07   2.4999999999983467e+07   2.4999999999983121e+07   2.4999999999984089e+07   2.4999999999995321e+07   2.4999999999994833e+07   2.4999999999991629e+07   2.4999999999997560e+07   2.4999999999995492e+07   2.4999999999996331e+07   2.4999999999995336e+07   2.4999999999994826e+07   2.4999999999993101e+07   2.4999999999998149e+07   2.4999999999996621e+07   2.4999999999997113e+07   2.4999999999994066e+07   2.4999999999993581e+07   2.4999999999992579e+07   2.4999999999995984e+07   2.4999999999994531e+07   2.4999999999995038e+07   2.4999999999994405e+07   2.4999999999994196e+07   2.4999999999993425e+07   2.4999999999996241e+07   2.4999999999995045e+07   2.4999999999995522e+07   2.4999999999997921e+07   2.4999999999997839e+07   2.4999999999996658e+07   2.4999999999997512e+07   2.4999999999996409e+07   2.4999999999996614e+07   2.5000000000000551e+07   2.5000000000000551e+07   2.5000000000000656e+07   2.5000000000000630e+07   2.5000000000000510e+07   2.5000000000000589e+07   2.2496224210471343e+07   2.2497520860569064e+07   2.0113776027671792e+07   2.0174961648264430e+07   1.6564370516443042e+07   1.6564370516443042e+07   2.4992142677169610e+07   2.4993962345443394e+07   2.4956159680942290e+07   2.4898134886868197e+07   2.4869799482523531e+07   2.4868286510620292e+07   2.5001954810183607e+07   2.5002119405000594e+07   2.5007236204636402e+07   2.5001687799853809e+07   2.5011223752216518e+07   2.5009403479813702e+07   2.5000071273155533e+07   2.5000089904052459e+07   2.5000708159717869e+07   2.4999889829858258e+07   2.5000637845035926e+07   2.5000473246295996e+07   2.4999990497020740e+07   2.4999996129497517e+07   2.5000081361718200e+07   2.4999926759828191e+07   2.5000017025770437e+07   2.4999998394826919e+07   2.4999997942587800e+07   2.4999998702234317e+07   2.5000010517021611e+07   2.4999982018484022e+07   2.5000000391224168e+07   2.4999994758747764e+07   2.4999999624692589e+07   2.4999999790279530e+07   2.5000001170162383e+07   2.4999996519113503e+07   2.4999999965927973e+07   2.4999999206281446e+07   2.4999999934424810e+07   2.4999999967037387e+07   2.5000000130180009e+07   2.4999999328561146e+07   2.5000000020145316e+07   2.4999999854558364e+07   2.4999999988554314e+07   2.4999999994604181e+07   2.5000000016266018e+07   2.4999999874382921e+07   2.5000000008829974e+07   2.4999999976217397e+07   2.4999999997989327e+07   2.4999999999097731e+07   2.5000000002311774e+07   2.4999999976973038e+07   2.5000000002225496e+07   2.4999999996175632e+07   2.4999999999639500e+07   2.4999999999839842e+07   2.5000000000362433e+07   2.4999999995821215e+07   2.5000000000476338e+07   2.4999999999367937e+07   2.4999999999931477e+07   2.4999999999966882e+07   2.5000000000053857e+07   2.4999999999245923e+07   2.5000000000091162e+07   2.4999999999890823e+07   2.4999999999986071e+07   2.4999999999991607e+07   2.5000000000004660e+07   2.4999999999866921e+07   2.50000000000171